# p  FACE_DATA 448
# x y z  p
0.29851268 -0.05 -0.058916461 99375.055
0.29287661 -0.05 -0.05903117 99368.583
0.28732139 -0.05 -0.059129661 99361.999
0.2818459 -0.05 -0.059212172 99355.59
0.27644903 -0.05 -0.059278994 99349.254
0.2711297 -0.05 -0.059330449 99343.051
0.2658868 -0.05 -0.059366837 99336.888
0.2607193 -0.05 -0.059388428 99330.879
0.25562616 -0.05 -0.059395534 99324.874
0.25060632 -0.05 -0.059388426 99319.037
0.24565878 -0.05 -0.05936731 99313.296
0.24078254 -0.05 -0.05933249 99307.682
0.23597662 -0.05 -0.059284229 99302.154
0.23124003 -0.05 -0.059222815 99296.684
0.22657183 -0.05 -0.059148513 99291.315
0.22197106 -0.05 -0.059061517 99286.094
0.2174368 -0.05 -0.058962112 99280.879
0.21296813 -0.05 -0.058850544 99275.831
0.20856415 -0.05 -0.058726966 99270.918
0.20422395 -0.05 -0.058591663 99266.065
0.19994668 -0.05 -0.058444872 99261.343
0.19573146 -0.05 -0.058286842 99256.617
0.19157743 -0.05 -0.058117798 99252.03
0.18748377 -0.05 -0.057937844 99247.624
0.18344963 -0.05 -0.05774725 99243.224
0.17947421 -0.05 -0.057546231 99239.023
0.17555671 -0.05 -0.057334962 99234.858
0.17169632 -0.05 -0.057113672 99230.819
0.16789227 -0.05 -0.056882541 99226.833
0.16414379 -0.05 -0.056641723 99223.024
0.16045013 -0.05 -0.056391367 99219.292
0.15681054 -0.05 -0.056131717 99215.602
0.15322428 -0.05 -0.055862901 99212.085
0.14969064 -0.05 -0.05558508 99208.606
0.14620889 -0.05 -0.055298419 99205.282
0.14277835 -0.05 -0.05500303 99202.074
0.13939831 -0.05 -0.054699085 99199.007
0.13606811 -0.05 -0.054386718 99196.087
0.13278706 -0.05 -0.054066111 99193.163
0.12955451 -0.05 -0.053737392 99190.399
0.12636983 -0.05 -0.053400599 99187.791
0.12323236 -0.05 -0.053055932 99185.176
0.12014147 -0.05 -0.052703526 99182.701
0.11709656 -0.05 -0.05234341 99180.385
0.11409703 -0.05 -0.051975671 99178.226
0.11114226 -0.05 -0.051600454 99176.169
0.1082317 -0.05 -0.051217806 99174.401
0.10536474 -0.05 -0.050827831 99172.618
0.10254082 -0.05 -0.050430696 99170.907
0.099759395 -0.05 -0.050026358 99169.459
0.097019921 -0.05 -0.04961488 99168.03
0.094321857 -0.05 -0.049196417 99166.706
0.091664693 -0.05 -0.048770895 99165.745
0.089047911 -0.05 -0.04833839 99164.862
0.086471003 -0.05 -0.047898978 99164.302
0.083933475 -0.05 -0.047452696 99163.703
0.081434839 -0.05 -0.046999592 99163.287
0.078974647 -0.05 -0.046539574 99163.107
0.07655244 -0.05 -0.046072641 99163.173
0.074167753 -0.05 -0.045598874 99163.38
0.071820143 -0.05 -0.0451183 99163.87
0.069509201 -0.05 -0.044630812 99164.711
0.067234514 -0.05 -0.044136379 99165.687
0.064995676 -0.05 -0.043635004 99166.775
0.062792303 -0.05 -0.0431266 99168.15
0.060624027 -0.05 -0.042611092 99169.926
0.058490483 -0.05 -0.042088421 99172.19
0.056391329 -0.05 -0.041558491 99174.902
0.054326214 -0.05 -0.041021276 99177.792
0.052294844 -0.05 -0.040476589 99181.096
0.050296925 -0.05 -0.039924285 99184.537
0.048332154 -0.05 -0.039364302 99188.532
0.046400273 -0.05 -0.038796463 99193.118
0.044501044 -0.05 -0.038220584 99198.498
0.042634268 -0.05 -0.037636392 99204.61
0.040799745 -0.05 -0.037043698 99211.047
0.038997273 -0.05 -0.036442353 99217.94
0.037226714 -0.05 -0.035832075 99225.864
0.035487963 -0.05 -0.035212558 99234.981
0.033780938 -0.05 -0.034583487 99245.327
0.032105582 -0.05 -0.033944551 99256.358
0.030461882 -0.05 -0.033295393 99267.887
0.028849889 -0.05 -0.032635584 99280.597
0.027269663 -0.05 -0.031964738 99295.517
0.025721348 -0.05 -0.031282369 99312.539
0.024205143 -0.05 -0.030587956 99331.186
0.022721302 -0.05 -0.029880987 99351.179
0.021270196 -0.05 -0.029160825 99373.621
0.019852222 -0.05 -0.028426892 99399.248
0.018467944 -0.05 -0.027678456 99428.016
0.017118007 -0.05 -0.026914744 99458.99
0.015803152 -0.05 -0.026135 99492.364
0.014524307 -0.05 -0.025338361 99528.706
0.013282583 -0.05 -0.024523947 99570.089
0.012079282 -0.05 -0.02369084 99618.314
0.010915938 -0.05 -0.022838012 99674.442
0.0097942749 -0.05 -0.021964378 99739.042
0.0087163409 -0.05 -0.021069041 99813.995
0.0076846072 -0.05 -0.020151109 99898.631
0.0067017827 -0.05 -0.019209438 99990.838
0.0057709089 -0.05 -0.018243237 100090.06
0.004895714 -0.05 -0.017252259 100200.64
0.0040800592 -0.05 -0.016236045 100320.62
0.0033280349 -0.05 -0.01519468 100452.45
0.0026444078 -0.05 -0.01412938 100593.39
0.0020337836 -0.05 -0.013041518 100741.12
0.0015005574 -0.05 -0.011933494 100891.31
0.0010487443 -0.05 -0.010809257 101038.97
0.00068152171 -0.05 -0.0096731368 101179.19
0.00040075996 -0.05 -0.0085303987 101305.64
0.00020667757 -0.05 -0.0073870972 101410.89
9.7913598e-05 -0.05 -0.0062493295 101492.77
0.99671092 -0.05 0.016527645 100243.82
0.99051974 -0.05 0.015490789 100189.21
0.98432738 -0.05 0.014460896 100156.54
0.97813388 -0.05 0.013437941 100133.62
0.97193925 -0.05 0.012421815 100114.98
0.96574354 -0.05 0.011412362 100098.45
0.95954674 -0.05 0.010409599 100083.88
0.95334887 -0.05 0.0094134627 100070.43
0.94714997 -0.05 0.0084237995 100058.11
0.94095004 -0.05 0.007440525 100046.43
0.9347491 -0.05 0.0064636345 100035.62
0.92854717 -0.05 0.0054930682 100025.22
0.92234427 -0.05 0.0045287499 100015.52
0.91614041 -0.05 0.0035706449 100006.18
0.90993561 -0.05 0.0026186027 99997.164
0.90372989 -0.05 0.0016726261 99988.574
0.89752325 -0.05 0.00073268375 99980.312
0.89131571 -0.05 -0.00020135975 99972.201
0.8851073 -0.05 -0.001129518 99964.379
0.878898 -0.05 -0.0020517342 99956.889
0.87268784 -0.05 -0.0029681455 99949.454
0.86647683 -0.05 -0.0038788196 99942.266
0.86026499 -0.05 -0.0047837277 99935.262
0.85405232 -0.05 -0.0056829562 99928.382
0.84783884 -0.05 -0.0065765671 99921.571
0.84162455 -0.05 -0.0074645469 99914.937
0.83540945 -0.05 -0.008346859 99908.55
0.82919358 -0.05 -0.0092236784 99902.039
0.82297693 -0.05 -0.010094965 99895.878
0.8167595 -0.05 -0.010960673 99889.656
0.81054131 -0.05 -0.01182088 99883.607
0.80432235 -0.05 -0.012675597 99877.532
0.79810265 -0.05 -0.013524854 99871.593
0.79188221 -0.05 -0.014368607 99865.727
0.78566102 -0.05 -0.015206943 99859.787
0.77943912 -0.05 -0.016039825 99854.01
0.77321647 -0.05 -0.016867224 99848.258
0.7669931 -0.05 -0.017689197 99842.54
0.76076902 -0.05 -0.018505732 99836.847
0.75454423 -0.05 -0.019316819 99831.196
0.74831873 -0.05 -0.020122429 99825.611
0.74209252 -0.05 -0.020922547 99820.024
0.73586561 -0.05 -0.021717159 99814.477
0.72963798 -0.05 -0.022506228 99808.99
0.72340967 -0.05 -0.023289789 99803.453
0.71718067 -0.05 -0.024067869 99797.846
0.71095096 -0.05 -0.024840296 99792.448
0.70472057 -0.05 -0.02560712 99786.831
0.69848947 -0.05 -0.026368307 99781.417
0.69225768 -0.05 -0.027123762 99775.878
0.68602521 -0.05 -0.027873544 99770.379
0.67979204 -0.05 -0.028617552 99764.889
0.6735582 -0.05 -0.029355798 99759.319
0.66732365 -0.05 -0.030088166 99753.891
0.66108841 -0.05 -0.030814555 99748.467
0.65485249 -0.05 -0.03153505 99742.896
0.64861587 -0.05 -0.032249564 99737.374
0.64237855 -0.05 -0.032957931 99731.868
0.63614053 -0.05 -0.033660119 99726.321
0.62990183 -0.05 -0.03435613 99720.682
0.62366242 -0.05 -0.035045826 99715.129
0.61742231 -0.05 -0.035729124 99709.486
0.6111815 -0.05 -0.036406017 99703.828
0.60493999 -0.05 -0.037076365 99698.265
0.59869777 -0.05 -0.037740094 99692.64
0.59245483 -0.05 -0.038397119 99687.003
0.58621118 -0.05 -0.039047351 99681.263
0.57996682 -0.05 -0.039690673 99675.528
0.57372174 -0.05 -0.040326942 99669.745
0.56747594 -0.05 -0.040956123 99663.879
0.56122942 -0.05 -0.041578097 99658.019
0.55498217 -0.05 -0.042192699 99652.113
0.54873419 -0.05 -0.042799859 99646.141
0.54248548 -0.05 -0.043399415 99640.274
0.53623603 -0.05 -0.043991227 99634.357
0.52998585 -0.05 -0.044575225 99628.368
0.52373492 -0.05 -0.045151237 99622.337
0.51748324 -0.05 -0.045719119 99616.221
0.51123082 -0.05 -0.046278705 99610.094
0.50497766 -0.05 -0.046829858 99603.851
0.49872374 -0.05 -0.047372452 99597.562
0.49246908 -0.05 -0.047906292 99591.231
0.48621365 -0.05 -0.048431172 99584.921
0.47995746 -0.05 -0.048946969 99578.494
0.47370052 -0.05 -0.049453546 99572.011
0.46744283 -0.05 -0.04995065 99565.444
0.46118437 -0.05 -0.050438067 99558.849
0.45492515 -0.05 -0.050915637 99552.233
0.44866518 -0.05 -0.051383174 99545.566
0.44240444 -0.05 -0.051840452 99538.827
0.43614296 -0.05 -0.052287232 99532.065
0.4298807 -0.05 -0.052723301 99525.229
0.42361771 -0.05 -0.053148464 99518.326
0.41735396 -0.05 -0.053562468 99511.378
0.41108948 -0.05 -0.053965037 99504.411
0.40482426 -0.05 -0.054355945 99497.368
0.3985583 -0.05 -0.054734906 99490.36
0.39229161 -0.05 -0.055101612 99483.352
0.3860242 -0.05 -0.055455848 99476.277
0.37975609 -0.05 -0.055797371 99469.122
0.37348727 -0.05 -0.056125784 99462.045
0.36721778 -0.05 -0.056440765 99454.913
0.3609476 -0.05 -0.056742073 99447.756
0.35467677 -0.05 -0.05702937 99440.553
0.3484053 -0.05 -0.0573023 99433.333
0.34213321 -0.05 -0.057560474 99426.098
0.33586051 -0.05 -0.057803562 99418.778
0.32958723 -0.05 -0.058031173 99411.508
0.3233134 -0.05 -0.058242883 99404.275
0.31703903 -0.05 -0.058438299 99396.947
0.31076416 -0.05 -0.058617008 99389.256
0.30448884 -0.05 -0.058778574 99382.088
0.29578484 -0.05 0.061060437 99574.67
0.29014938 -0.05 0.060918873 99569.904
0.28459544 -0.05 0.060764783 99565.918
0.27912186 -0.05 0.060598353 99562.104
0.27372753 -0.05 0.060419822 99558.42
0.26841135 -0.05 0.060229465 99554.876
0.26317222 -0.05 0.060027531 99551.317
0.25800907 -0.05 0.059814241 99547.983
0.25292086 -0.05 0.059589861 99544.71
0.24790654 -0.05 0.059354613 99541.686
0.24296508 -0.05 0.059108659 99538.796
0.23809546 -0.05 0.058852254 99536.077
0.23329669 -0.05 0.058585618 99533.424
0.2285678 -0.05 0.058308994 99530.867
0.22390779 -0.05 0.058022604 99528.462
0.21931573 -0.05 0.057726596 99526.314
0.21479067 -0.05 0.057421216 99524.192
0.21033169 -0.05 0.057106667 99522.263
0.20593787 -0.05 0.056783059 99520.456
0.20160831 -0.05 0.056450638 99518.763
0.19734213 -0.05 0.0561096 99517.295
0.19313845 -0.05 0.055760156 99515.863
0.18899641 -0.05 0.05540249 99514.604
0.18491515 -0.05 0.055036668 99513.611
0.18089384 -0.05 0.054662925 99512.588
0.17693166 -0.05 0.054281433 99511.848
0.17302781 -0.05 0.053892335 99511.24
0.16918147 -0.05 0.053495823 99510.836
0.16539186 -0.05 0.05309204 99510.484
0.1616582 -0.05 0.052681107 99510.306
0.15797973 -0.05 0.052263136 99510.146
0.15435569 -0.05 0.051838336 99510.04
0.15078536 -0.05 0.051406806 99510.247
0.14726799 -0.05 0.050968672 99510.582
0.14380287 -0.05 0.050524066 99511.151
0.1403893 -0.05 0.050073067 99511.908
0.13702657 -0.05 0.049615816 99512.841
0.13371401 -0.05 0.049152416 99514.063
0.13045093 -0.05 0.048683021 99515.353
0.12723666 -0.05 0.048207725 99516.975
0.12407057 -0.05 0.04772654 99518.885
0.12095201 -0.05 0.047239634 99520.832
0.11788033 -0.05 0.046747113 99522.997
0.11485493 -0.05 0.046248981 99525.43
0.11187522 -0.05 0.045745296 99528.057
0.10894056 -0.05 0.045236176 99530.81
0.10605039 -0.05 0.04472164 99534.027
0.10320411 -0.05 0.044201767 99537.307
0.10040116 -0.05 0.043676699 99540.727
0.09764099 -0.05 0.043146365 99544.635
0.094923051 -0.05 0.042610806 99548.622
0.092246793 -0.05 0.04207015 99552.782
0.089611715 -0.05 0.041524302 99557.508
0.087017294 -0.05 0.040973314 99562.309
0.08446302 -0.05 0.040417238 99567.565
0.081948397 -0.05 0.039856088 99572.843
0.079472937 -0.05 0.039289893 99578.498
0.077036194 -0.05 0.038718537 99584.64
0.074637712 -0.05 0.038141999 99591.194
0.072277022 -0.05 0.037560339 99597.915
0.069953678 -0.05 0.036973564 99604.967
0.06766728 -0.05 0.036381551 99612.565
0.065417417 -0.05 0.035784247 99620.488
0.063203677 -0.05 0.035181636 99628.819
0.061025688 -0.05 0.034573617 99637.665
0.058883082 -0.05 0.033960094 99647.021
0.056775498 -0.05 0.033340996 99656.892
0.054702597 -0.05 0.03271621 99667.328
0.052664033 -0.05 0.032085692 99678.041
0.050659518 -0.05 0.031449244 99689.693
0.048688764 -0.05 0.030806706 99701.832
0.046751474 -0.05 0.030158006 99714.768
0.044847398 -0.05 0.029502951 99728.288
0.042976304 -0.05 0.028841348 99742.673
0.041138009 -0.05 0.028172917 99758.101
0.039332318 -0.05 0.027497458 99774.393
0.03755904 -0.05 0.026814814 99791.504
0.035818048 -0.05 0.026124697 99809.773
0.03410925 -0.05 0.025426795 99829.146
0.032432578 -0.05 0.024720792 99849.869
0.030787992 -0.05 0.024006371 99871.795
0.029175495 -0.05 0.02328318 99895.284
0.027595155 -0.05 0.022550788 99920.364
0.026047052 -0.05 0.021808816 99947.078
0.02453135 -0.05 0.021056783 99975.784
0.023048273 -0.05 0.020294178 100006.43
0.021598095 -0.05 0.0195205 100039.32
0.02018122 -0.05 0.01873513 100074.79
0.018798068 -0.05 0.017937511 100112.72
0.017449235 -0.05 0.017126933 100153.94
0.016135403 -0.05 0.016302657 100198.19
0.014857346 -0.05 0.01546396 100245.88
0.013616029 -0.05 0.014610022 100297.4
0.012412602 -0.05 0.013740015 100353.62
0.01124841 -0.05 0.012853079 100414.45
0.010125027 -0.05 0.01194826 100479.87
0.0090442289 -0.05 0.01102455 100550.48
0.0080081011 -0.05 0.010081147 100626.23
0.0070191528 -0.05 0.0091172721 100707.29
0.0060801419 -0.05 0.0081319064 100794.25
0.005194143 -0.05 0.0071243959 100886.1
0.0043648915 -0.05 0.0060946652 100982.23
0.0035962656 -0.05 0.0050424296 101081.27
0.0028923475 -0.05 0.0039679627 101181.07
0.0022578437 -0.05 0.0028726941 101279.04
0.0016972929 -0.05 0.0017582035 101370.65
0.0012149763 -0.05 0.00062708959 101450.37
0.00081472569 -0.05 -0.00051652056 101515.95
0.00049951814 -0.05 -0.0016681566 101562.55
0.00027098291 -0.05 -0.0028224741 101584.37
0.0001290631 -0.05 -0.003973415 101580.51
7.212202e-05 -0.05 -0.0051149502 101550.05
0.99669048 -0.05 0.017426765 100055.29
0.99045857 -0.05 0.018181165 100089.59
0.9842258 -0.05 0.018928556 100067.72
0.97799221 -0.05 0.019668967 100073.71
0.9717578 -0.05 0.020402502 100066.82
0.96552261 -0.05 0.021129323 100065
0.95928663 -0.05 0.02184941 100060.7
0.9530499 -0.05 0.022562829 100057.21
0.94681242 -0.05 0.023269736 100053.24
0.94057421 -0.05 0.023970213 100049.39
0.93433529 -0.05 0.024664267 100045.31
0.92809566 -0.05 0.025351959 100041.24
0.92185533 -0.05 0.026033364 100037.07
0.91561434 -0.05 0.026708519 100032.94
0.90937268 -0.05 0.027377575 100028.61
0.90313038 -0.05 0.028040529 100024.3
0.89688743 -0.05 0.028697414 100019.89
0.89064387 -0.05 0.029348367 100015.54
0.88439968 -0.05 0.029993399 100011.07
0.87815488 -0.05 0.030632455 100006.62
0.87190949 -0.05 0.031265673 100002.13
0.86566351 -0.05 0.031893121 99997.711
0.85941696 -0.05 0.032514772 99993.181
0.85316984 -0.05 0.033130711 99988.687
0.84692217 -0.05 0.033741002 99984.159
0.84067394 -0.05 0.03434563 99979.684
0.83442517 -0.05 0.03494456 99975.159
0.82817586 -0.05 0.035537968 99970.643
0.82192604 -0.05 0.036125812 99966.143
0.81567569 -0.05 0.036708049 99961.686
0.80942482 -0.05 0.037284757 99957.184
0.80317345 -0.05 0.037855945 99952.7
0.79692158 -0.05 0.038421645 99948.229
0.79066922 -0.05 0.038981813 99943.8
0.78441637 -0.05 0.039536535 99939.344
0.77816303 -0.05 0.040085777 99934.922
0.77190921 -0.05 0.040629506 99930.5
0.76565492 -0.05 0.041167783 99926.119
0.75940015 -0.05 0.041700596 99921.716
0.75314494 -0.05 0.042227934 99917.342
0.74688925 -0.05 0.042749768 99912.979
0.74063311 -0.05 0.043266083 99908.646
0.73437651 -0.05 0.043776866 99904.298
0.72811947 -0.05 0.044282081 99899.968
0.72186198 -0.05 0.044781761 99895.636
0.71560405 -0.05 0.045275935 99891.329
0.70934567 -0.05 0.045764429 99887.021
0.70308686 -0.05 0.046247294 99882.691
0.69682761 -0.05 0.046724497 99878.404
0.69056793 -0.05 0.047195942 99874.1
0.68430781 -0.05 0.047661688 99869.781
0.67804728 -0.05 0.048121637 99865.461
0.67178632 -0.05 0.048575798 99861.13
0.66552493 -0.05 0.049024054 99856.847
0.65926312 -0.05 0.049466307 99852.536
0.65300089 -0.05 0.04990264 99848.202
0.64673824 -0.05 0.050332967 99843.867
0.64047518 -0.05 0.050757122 99839.529
0.6342117 -0.05 0.051175073 99835.171
0.62794781 -0.05 0.051586821 99830.793
0.62168351 -0.05 0.051992229 99826.438
0.61541878 -0.05 0.052391212 99822.057
0.60915366 -0.05 0.052783768 99817.641
0.60288812 -0.05 0.053169751 99813.206
0.59662219 -0.05 0.05354909 99808.741
0.59035585 -0.05 0.053921702 99804.282
0.58408909 -0.05 0.054287493 99799.784
0.57782195 -0.05 0.054646351 99795.287
0.57155441 -0.05 0.054998129 99790.752
0.56528646 -0.05 0.055342794 99786.16
0.55901813 -0.05 0.055680225 99781.567
0.5527494 -0.05 0.056010261 99776.951
0.54648029 -0.05 0.056332829 99772.292
0.54021078 -0.05 0.056647767 99767.632
0.53394089 -0.05 0.056954937 99762.901
0.52767062 -0.05 0.057254265 99758.115
0.52139997 -0.05 0.057545582 99753.308
0.51512895 -0.05 0.057828745 99748.487
0.50885756 -0.05 0.058103586 99743.767
0.5025858 -0.05 0.058369969 99738.998
0.49631369 -0.05 0.058627767 99734.168
0.49004122 -0.05 0.058876786 99729.294
0.4837684 -0.05 0.059116821 99724.439
0.47749524 -0.05 0.059347748 99719.517
0.47122175 -0.05 0.059569428 99714.548
0.46494792 -0.05 0.059781611 99709.526
0.45867378 -0.05 0.059984084 99704.523
0.45239932 -0.05 0.060176685 99699.497
0.44612456 -0.05 0.060359229 99694.458
0.43984952 -0.05 0.060531489 99689.386
0.4335742 -0.05 0.060693228 99684.296
0.4272986 -0.05 0.060844235 99679.184
0.42102276 -0.05 0.06098431 99674.069
0.41474667 -0.05 0.061113205 99668.945
0.40847036 -0.05 0.061230642 99663.826
0.40219384 -0.05 0.061336398 99658.631
0.39591713 -0.05 0.061430185 99653.497
0.38964026 -0.05 0.061511698 99648.395
0.38336323 -0.05 0.061580719 99643.274
0.37708607 -0.05 0.061637009 99638.072
0.37080881 -0.05 0.061680171 99632.96
0.36453147 -0.05 0.061709884 99627.852
0.35825408 -0.05 0.061725906 99622.794
0.35197668 -0.05 0.061727903 99617.708
0.34569928 -0.05 0.061715518 99612.623
0.33942193 -0.05 0.061688365 99607.628
0.33314466 -0.05 0.061646113 99602.653
0.32686753 -0.05 0.061588375 99597.735
0.32059055 -0.05 0.061514725 99592.821
0.31431379 -0.05 0.061424776 99588.062
0.30803729 -0.05 0.061318113 99583.287
0.3017611 -0.05 0.061194304 99577.72
