# wallShearStress  FACE_DATA 448
# x y z  wallShearStress_x wallShearStress_y wallShearStress_z
0.29851268 -0.05 -0.058916461 -7.1405414 -1.067918e-16 -0.15565089
0.29287661 -0.05 -0.05903117 -7.0458157 -1.3284134e-17 -0.13475243
0.28732139 -0.05 -0.059129661 -6.9276322 -5.5995371e-17 -0.11441237
0.2818459 -0.05 -0.059212172 -6.8166184 -1.1736528e-17 -0.094576364
0.27644903 -0.05 -0.059278994 -6.7112908 2.5743533e-18 -0.075749361
0.2711297 -0.05 -0.059330449 -6.6120456 -2.8299987e-17 -0.05734646
0.2658868 -0.05 -0.059366837 -6.5186869 -3.6030019e-17 -0.037926426
0.2607193 -0.05 -0.059388428 -6.4311462 -5.1307046e-18 -0.018990071
0.25562616 -0.05 -0.059395534 -6.34878 7.4232557e-19 -0.00075433728
0.25060632 -0.05 -0.059388426 -6.2711744 7.8519277e-18 0.017772813
0.24565878 -0.05 -0.05936731 -6.1972961 -1.9143073e-17 0.035623142
0.24078254 -0.05 -0.05933249 -6.1269967 -7.1716739e-18 0.051846639
0.23597662 -0.05 -0.059284229 -6.0592015 -6.1055458e-17 0.068204678
0.23124003 -0.05 -0.059222815 -5.99382 -4.6508947e-17 0.084841204
0.22657183 -0.05 -0.059148513 -5.9317494 6.0749812e-17 0.10162081
0.22197106 -0.05 -0.059061517 -5.8726779 3.0708797e-17 0.11828001
0.2174368 -0.05 -0.058962112 -5.8168484 -1.3764618e-16 0.13477014
0.21296813 -0.05 -0.058850544 -5.7644359 -1.2424614e-16 0.15133252
0.20856415 -0.05 -0.058726966 -5.7145303 -1.1025472e-16 0.16777685
0.20422395 -0.05 -0.058591663 -5.6675797 6.4352539e-17 0.18415345
0.19994668 -0.05 -0.058444872 -5.6236663 9.0141373e-19 0.20054873
0.19573146 -0.05 -0.058286842 -5.5827489 1.0740257e-16 0.21693289
0.19157743 -0.05 -0.058117798 -5.5449835 -9.1384246e-17 0.23352643
0.18748377 -0.05 -0.057937844 -5.5093149 -7.2465443e-17 0.25014025
0.18344963 -0.05 -0.05774725 -5.4759967 -1.2328786e-16 0.26675186
0.17947421 -0.05 -0.057546231 -5.4453671 -3.5757272e-17 0.28359632
0.17555671 -0.05 -0.057334962 -5.4167641 1.5630771e-16 0.30045928
0.17169632 -0.05 -0.057113672 -5.3909423 6.1015217e-17 0.31758072
0.16789227 -0.05 -0.056882541 -5.3674643 -1.2214385e-16 0.33488896
0.16414379 -0.05 -0.056641723 -5.3463725 -1.6212651e-16 0.35250008
0.16045013 -0.05 -0.056391367 -5.3272642 9.6028891e-17 0.37024603
0.15681054 -0.05 -0.056131717 -5.3108722 -1.0119264e-16 0.38833042
0.15322428 -0.05 -0.055862901 -5.296888 9.8239517e-17 0.40678611
0.14969064 -0.05 -0.05558508 -5.2849593 5.4883559e-16 0.42549503
0.14620889 -0.05 -0.055298419 -5.2753548 -2.0161277e-16 0.44468028
0.14277835 -0.05 -0.05500303 -5.2673341 -1.1419191e-16 0.46417103
0.13939831 -0.05 -0.054699085 -5.2609571 -5.0944268e-16 0.48401788
0.13606811 -0.05 -0.054386718 -5.2561745 -3.0981539e-16 0.50421271
0.13278706 -0.05 -0.054066111 -5.253389 -3.1434949e-16 0.52482722
0.12955451 -0.05 -0.053737392 -5.2530127 -7.5726356e-17 0.54618399
0.12636983 -0.05 -0.053400599 -5.2540256 -1.2294144e-16 0.56790594
0.12323236 -0.05 -0.053055932 -5.2571598 3.6460167e-16 0.59011303
0.12014147 -0.05 -0.052703526 -5.2628409 4.2233891e-16 0.61319592
0.11709656 -0.05 -0.05234341 -5.2701402 -2.7762876e-17 0.63696228
0.11409703 -0.05 -0.051975671 -5.2790806 1.0091896e-16 0.66140162
0.11114226 -0.05 -0.051600454 -5.2897563 -2.7366679e-16 0.68655488
0.1082317 -0.05 -0.051217806 -5.3016533 -7.6423649e-17 0.7123558
0.10536474 -0.05 -0.050827831 -5.314444 4.531956e-16 0.73864222
0.10254082 -0.05 -0.050430696 -5.3296749 -1.7390136e-16 0.76615512
0.099759395 -0.05 -0.050026358 -5.3462699 4.5898019e-16 0.79455948
0.097019921 -0.05 -0.04961488 -5.3641068 -9.3399959e-17 0.82366714
0.094321857 -0.05 -0.049196417 -5.3844849 1.4561393e-17 0.85421318
0.091664693 -0.05 -0.048770895 -5.4059748 2.4832268e-17 0.88573065
0.089047911 -0.05 -0.04833839 -5.4278562 3.8449597e-16 0.91794182
0.086471003 -0.05 -0.047898978 -5.4516606 4.6179382e-16 0.95142416
0.083933475 -0.05 -0.047452696 -5.4770183 -4.3599334e-16 0.98604644
0.081434839 -0.05 -0.046999592 -5.5055869 -1.2595142e-16 1.0226603
0.078974647 -0.05 -0.046539574 -5.5351971 2.406293e-16 1.0605277
0.07655244 -0.05 -0.046072641 -5.5651312 -2.0007687e-16 1.0994019
0.074167753 -0.05 -0.045598874 -5.5953548 4.0166647e-16 1.1395073
0.071820143 -0.05 -0.0451183 -5.6262384 -2.0385333e-16 1.1812803
0.069509201 -0.05 -0.044630812 -5.6571808 -2.9208586e-16 1.2243915
0.067234514 -0.05 -0.044136379 -5.6888518 7.0645297e-16 1.2691042
0.064995676 -0.05 -0.043635004 -5.7234647 -3.1298103e-16 1.3164568
0.062792303 -0.05 -0.0431266 -5.760579 2.9717314e-16 1.3663516
0.060624027 -0.05 -0.042611092 -5.7992043 -1.6826379e-17 1.4184071
0.058490483 -0.05 -0.042088421 -5.8383129 -2.0755264e-16 1.4723615
0.056391329 -0.05 -0.041558491 -5.8771867 1.1096569e-16 1.5279694
0.054326214 -0.05 -0.041021276 -5.9162277 -1.0529811e-16 1.5859693
0.052294844 -0.05 -0.040476589 -5.9561175 9.2777084e-17 1.6469354
0.050296925 -0.05 -0.039924285 -5.9953544 3.8062761e-16 1.7104381
0.048332154 -0.05 -0.039364302 -6.0362729 4.7529025e-17 1.7775963
0.046400273 -0.05 -0.038796463 -6.0760031 2.1843548e-16 1.8475056
0.044501044 -0.05 -0.038220584 -6.1152272 3.1683966e-16 1.920624
0.042634268 -0.05 -0.037636392 -6.1535146 1.6951059e-16 1.9966621
0.040799745 -0.05 -0.037043698 -6.1927543 1.1821868e-16 2.0772131
0.038997273 -0.05 -0.036442353 -6.2364904 -8.449815e-16 2.1645855
0.037226714 -0.05 -0.035832075 -6.2829468 4.9229216e-16 2.2576108
0.035487963 -0.05 -0.035212558 -6.3268642 -3.8865995e-16 2.354107
0.033780938 -0.05 -0.034583487 -6.3662218 -6.3990643e-17 2.4534952
0.032105582 -0.05 -0.033944551 -6.3994975 -3.2341251e-16 2.5569304
0.030461882 -0.05 -0.033295393 -6.4304726 6.935044e-16 2.6688522
0.028849889 -0.05 -0.032635584 -6.4602605 3.0356304e-16 2.7890255
0.027269663 -0.05 -0.031964738 -6.4828624 -4.7074071e-16 2.9124087
0.025721348 -0.05 -0.031282369 -6.4947484 8.0387494e-16 3.0382317
0.024205143 -0.05 -0.030587956 -6.5050311 2.5111036e-16 3.169769
0.022721302 -0.05 -0.029880987 -6.5194491 3.6549495e-16 3.3118058
0.021270196 -0.05 -0.029160825 -6.5309702 -6.0788979e-16 3.4615583
0.019852222 -0.05 -0.028426892 -6.5125363 -5.0913658e-16 3.6077752
0.018467944 -0.05 -0.027678456 -6.4398446 -6.7134739e-16 3.7455162
0.017118007 -0.05 -0.026914744 -6.2989872 -4.826564e-16 3.8750329
0.015803152 -0.05 -0.026135 -6.0990338 -3.8309842e-16 4.0072349
0.014524307 -0.05 -0.025338361 -5.8708095 2.8635527e-17 4.1676549
0.013282583 -0.05 -0.024523947 -5.6731139 3.1143733e-16 4.3989893
0.012079282 -0.05 -0.02369084 -5.5021333 6.0051862e-16 4.7216124
0.010915938 -0.05 -0.022838012 -5.362295 1.5102102e-17 5.1424784
0.0097942749 -0.05 -0.021964378 -5.2585542 2.4696887e-16 5.6443901
0.0087163409 -0.05 -0.021069041 -5.2216828 -4.8612952e-16 6.2154532
0.0076846072 -0.05 -0.020151109 -5.2813351 2.1334819e-16 6.841861
0.0067017827 -0.05 -0.019209438 -5.3262649 -3.5133973e-17 7.4456262
0.0057709089 -0.05 -0.018243237 -5.269585 -2.6857643e-16 7.9471459
0.004895714 -0.05 -0.017252259 -5.0686718 2.3080523e-16 8.3052174
0.0040800592 -0.05 -0.016236045 -4.7002384 2.4383966e-17 8.4794403
0.0033280349 -0.05 -0.01519468 -4.192702 1.6738831e-16 8.458824
0.0026444078 -0.05 -0.01412938 -3.5870152 -8.7370914e-17 8.2059682
0.0020337836 -0.05 -0.013041518 -2.9256494 -2.216005e-16 7.7436244
0.0015005574 -0.05 -0.011933494 -2.2560922 2.1305525e-16 7.0723658
0.0010487443 -0.05 -0.010809257 -1.6146292 2.3860915e-18 6.206084
0.00068152171 -0.05 -0.0096731368 -1.0461837 -1.4833482e-17 5.2017799
0.00040075996 -0.05 -0.0085303987 -0.63682797 -3.1476733e-17 4.1133025
0.00020667757 -0.05 -0.0073870972 -0.36044812 1.4892387e-17 2.9876598
9.7913598e-05 -0.05 -0.0062493295 -0.20469433 2.5577028e-17 1.8957836
0.99671092 -0.05 0.016527645 -52.860236 -1.5079615e-15 -8.4726327
0.99051974 -0.05 0.015490789 -47.948197 -1.0571895e-15 -7.9465934
0.98432738 -0.05 0.014460896 -47.66349 1.6835518e-16 -7.8851449
0.97813388 -0.05 0.013437941 -47.497365 1.8393875e-16 -7.802988
0.97193925 -0.05 0.012421815 -47.256272 2.9022836e-16 -7.7110529
0.96574354 -0.05 0.011412362 -46.986632 -2.9877933e-16 -7.6154331
0.95954674 -0.05 0.010409599 -46.695571 -1.1036626e-15 -7.516782
0.95334887 -0.05 0.0094134627 -46.386666 -3.6026944e-16 -7.4175074
0.94714997 -0.05 0.0084237995 -46.065215 1.2457386e-17 -7.3171675
0.94095004 -0.05 0.007440525 -45.731905 -8.2206928e-16 -7.2164201
0.9347491 -0.05 0.0064636345 -45.390219 1.2957884e-15 -7.1148341
0.92854717 -0.05 0.0054930682 -45.040051 -3.5451618e-16 -7.0138371
0.92234427 -0.05 0.0045287499 -44.682185 -1.1469552e-15 -6.9123017
0.91614041 -0.05 0.0035706449 -44.31524 7.0396799e-17 -6.8112274
0.90993561 -0.05 0.0026186027 -43.941569 8.4551539e-16 -6.7102415
0.90372989 -0.05 0.0016726261 -43.559606 5.4576313e-16 -6.6087606
0.89752325 -0.05 0.00073268375 -43.170218 -8.313397e-16 -6.5076858
0.89131571 -0.05 -0.00020135975 -42.774964 7.0328901e-16 -6.4068582
0.8851073 -0.05 -0.001129518 -42.376071 -1.4365717e-16 -6.3060103
0.878898 -0.05 -0.0020517342 -41.974243 -2.0383026e-15 -6.2058165
0.87268784 -0.05 -0.0029681455 -41.572431 -1.0127344e-15 -6.1073098
0.86647683 -0.05 -0.0038788196 -41.170708 -1.0195291e-15 -6.0092737
0.86026499 -0.05 -0.0047837277 -40.769562 -6.9479404e-16 -5.9125951
0.85405232 -0.05 -0.0056829562 -40.368776 -2.0390549e-15 -5.8170739
0.84783884 -0.05 -0.0065765671 -39.968972 -1.0780219e-15 -5.7226103
0.84162455 -0.05 -0.0074645469 -39.569095 -4.4575306e-16 -5.6287673
0.83540945 -0.05 -0.008346859 -39.167662 3.7542957e-16 -5.5359234
0.82919358 -0.05 -0.0092236784 -38.763445 -1.8205864e-16 -5.444253
0.82297693 -0.05 -0.010094965 -38.354403 2.2874482e-15 -5.3517706
0.8167595 -0.05 -0.010960673 -37.940039 -8.0809343e-16 -5.2600842
0.81054131 -0.05 -0.01182088 -37.521843 -2.3952754e-16 -5.168282
0.80432235 -0.05 -0.012675597 -37.101207 1.1100472e-15 -5.0772663
0.79810265 -0.05 -0.013524854 -36.681102 1.6675399e-16 -4.9867226
0.79188221 -0.05 -0.014368607 -36.263119 -1.6877014e-16 -4.8973925
0.78566102 -0.05 -0.015206943 -35.849848 5.3294859e-16 -4.8096299
0.77943912 -0.05 -0.016039825 -35.440061 -1.1231603e-15 -4.7226397
0.77321647 -0.05 -0.016867224 -35.033491 -1.3342371e-15 -4.6372359
0.7669931 -0.05 -0.017689197 -34.629458 -1.1563002e-15 -4.5528675
0.76076902 -0.05 -0.018505732 -34.22702 7.1162715e-16 -4.4694455
0.75454423 -0.05 -0.019316819 -33.823789 9.9002859e-16 -4.3866324
0.74831873 -0.05 -0.020122429 -33.416923 1.4197863e-15 -4.3040483
0.74209252 -0.05 -0.020922547 -33.004253 3.4491978e-16 -4.2214343
0.73586561 -0.05 -0.021717159 -32.585507 9.7086014e-16 -4.1386431
0.72963798 -0.05 -0.022506228 -32.162121 2.8595609e-16 -4.055849
0.72340967 -0.05 -0.023289789 -31.739066 -1.6700885e-15 -3.9738368
0.71718067 -0.05 -0.024067869 -31.320257 1.5768267e-15 -3.8926356
0.71095096 -0.05 -0.024840296 -30.906327 1.3613522e-16 -3.8122844
0.70472057 -0.05 -0.02560712 -30.498818 -8.9836556e-17 -3.7340255
0.69848947 -0.05 -0.026368307 -30.096853 7.2702486e-16 -3.6563349
0.69225768 -0.05 -0.027123762 -29.698883 -8.2880675e-16 -3.5804273
0.68602521 -0.05 -0.027873544 -29.303009 -1.4200555e-16 -3.5052008
0.67979204 -0.05 -0.028617552 -28.903776 -6.1662694e-17 -3.4303346
0.6735582 -0.05 -0.029355798 -28.497042 -1.2366669e-15 -3.3552704
0.66732365 -0.05 -0.030088166 -28.078807 6.8808616e-16 -3.2790492
0.66108841 -0.05 -0.030814555 -27.651749 -1.1393117e-16 -3.2025826
0.65485249 -0.05 -0.03153505 -27.222949 8.0585354e-16 -3.1263917
0.64861587 -0.05 -0.032249564 -26.797715 4.5790952e-16 -3.0506517
0.64237855 -0.05 -0.032957931 -26.376564 -5.163129e-16 -2.9760128
0.63614053 -0.05 -0.033660119 -25.960246 1.4778634e-16 -2.9026729
0.62990183 -0.05 -0.03435613 -25.549466 9.6788153e-16 -2.8305669
0.62366242 -0.05 -0.035045826 -25.141863 1.2503915e-15 -2.7592672
0.61742231 -0.05 -0.035729124 -24.733523 -3.0932565e-16 -2.689025
0.6111815 -0.05 -0.036406017 -24.318115 1.348205e-16 -2.6187576
0.60493999 -0.05 -0.037076365 -23.886985 4.5398866e-16 -2.547439
0.59869777 -0.05 -0.037740094 -23.436432 4.24919e-16 -2.4747406
0.59245483 -0.05 -0.038397119 -22.972139 7.4531729e-16 -2.400702
0.58621118 -0.05 -0.039047351 -22.509407 1.3268526e-15 -2.3272351
0.57996682 -0.05 -0.039690673 -22.055629 -1.0100921e-15 -2.2550602
0.57372174 -0.05 -0.040326942 -21.610585 7.6524547e-17 -2.1845924
0.56747594 -0.05 -0.040956123 -21.174786 -1.1841598e-15 -2.1157955
0.56122942 -0.05 -0.041578097 -20.747017 -1.3506006e-16 -2.0484657
0.55498217 -0.05 -0.042192699 -20.324128 6.7598501e-16 -1.9826101
0.54873419 -0.05 -0.042799859 -19.899921 2.4418874e-16 -1.9178141
0.54248548 -0.05 -0.043399415 -19.462395 -2.9702941e-16 -1.8528165
0.53623603 -0.05 -0.043991227 -19.000434 4.6145523e-16 -1.7868847
0.52998585 -0.05 -0.044575225 -18.519433 2.3001997e-16 -1.7193483
0.52373492 -0.05 -0.045151237 -18.044585 2.6952449e-16 -1.6526022
0.51748324 -0.05 -0.045719119 -17.576506 3.623635e-16 -1.5871749
0.51123082 -0.05 -0.046278705 -17.116958 -5.771621e-17 -1.5229944
0.50497766 -0.05 -0.046829858 -16.668317 1.6111543e-16 -1.4604399
0.49872374 -0.05 -0.047372452 -16.228188 5.891147e-16 -1.3992496
0.49246908 -0.05 -0.047906292 -15.794794 7.984571e-17 -1.3392142
0.48621365 -0.05 -0.048431172 -15.367845 9.7179418e-17 -1.2798592
0.47995746 -0.05 -0.048946969 -14.947125 1.9410584e-17 -1.2222042
0.47370052 -0.05 -0.049453546 -14.533388 8.8512847e-17 -1.1659858
0.46744283 -0.05 -0.04995065 -14.125222 -1.4227915e-16 -1.1111059
0.46118437 -0.05 -0.050438067 -13.722356 -8.0661476e-16 -1.0576289
0.45492515 -0.05 -0.050915637 -13.325071 -4.5838308e-16 -1.0056909
0.44866518 -0.05 -0.051383174 -12.937625 -1.3233597e-16 -0.95543
0.44240444 -0.05 -0.051840452 -12.562988 3.9187664e-16 -0.90687556
0.43614296 -0.05 -0.052287232 -12.202286 -6.7049701e-17 -0.8601218
0.4298807 -0.05 -0.052723301 -11.85602 -8.1444087e-17 -0.81527104
0.42361771 -0.05 -0.053148464 -11.522613 -6.3347933e-16 -0.7721142
0.41735396 -0.05 -0.053562468 -11.204888 -1.9504493e-16 -0.73043011
0.41108948 -0.05 -0.053965037 -10.904043 -5.561976e-16 -0.69054383
0.40482426 -0.05 -0.054355945 -10.620054 8.7204238e-17 -0.65250572
0.3985583 -0.05 -0.054734906 -10.35028 -2.1647859e-16 -0.61594745
0.39229161 -0.05 -0.055101612 -10.091517 -4.0216812e-17 -0.58072251
0.3860242 -0.05 -0.055455848 -9.8430185 1.5093082e-16 -0.54671385
0.37975609 -0.05 -0.055797371 -9.6041999 3.2885082e-16 -0.51370884
0.37348727 -0.05 -0.056125784 -9.3740493 1.3698198e-16 -0.48153427
0.36721778 -0.05 -0.056440765 -9.1517142 -2.5983761e-16 -0.45040349
0.3609476 -0.05 -0.056742073 -8.9375724 3.4104623e-17 -0.42012751
0.35467677 -0.05 -0.05702937 -8.7309625 4.9984172e-17 -0.39065271
0.3484053 -0.05 -0.0573023 -8.5317369 3.1588906e-16 -0.36190715
0.34213321 -0.05 -0.057560474 -8.3393459 1.2794765e-16 -0.33387218
0.33586051 -0.05 -0.057803562 -8.15389 8.1750321e-17 -0.30657617
0.32958723 -0.05 -0.058031173 -7.9749077 -1.5138927e-16 -0.27983203
0.3233134 -0.05 -0.058242883 -7.8017079 -5.5524819e-17 -0.25374709
0.31703903 -0.05 -0.058438299 -7.6348171 7.5368087e-17 -0.22825947
0.31076416 -0.05 -0.058617008 -7.4748558 1.448108e-16 -0.20336045
0.30448884 -0.05 -0.058778574 -7.2861763 -6.8649001e-17 -0.1777017
0.29578484 -0.05 0.061060437 -6.8737537 1.5129239e-16 -0.17782895
0.29014938 -0.05 0.060918873 -7.0652841 -4.8054295e-17 -0.2019573
0.28459544 -0.05 0.060764783 -7.3094535 1.72895e-17 -0.22859402
0.27912186 -0.05 0.060598353 -7.5499449 -7.5581625e-17 -0.25627325
0.27372753 -0.05 0.060419822 -7.7908883 -1.7531128e-16 -0.28534764
0.26841135 -0.05 0.060229465 -8.0307751 1.2383659e-16 -0.31600648
0.26317222 -0.05 0.060027531 -8.2711287 -2.1744817e-16 -0.34825181
0.25800907 -0.05 0.059814241 -8.5129722 2.6188997e-16 -0.3822555
0.25292086 -0.05 0.059589861 -8.7555468 -1.4641781e-16 -0.417683
0.24790654 -0.05 0.059354613 -8.9974453 -1.2744264e-16 -0.45489162
0.24296508 -0.05 0.059108659 -9.2379476 -2.0453155e-16 -0.49357047
0.23809546 -0.05 0.058852254 -9.4776263 -2.349394e-16 -0.53385788
0.23329669 -0.05 0.058585618 -9.7153126 -3.8182651e-17 -0.57563596
0.2285678 -0.05 0.058308994 -9.9493904 3.1927819e-16 -0.61895102
0.22390779 -0.05 0.058022604 -10.181862 -1.379992e-16 -0.66402563
0.21931573 -0.05 0.057726596 -10.412897 4.5936526e-16 -0.71079363
0.21479067 -0.05 0.057421216 -10.64186 1.6407672e-16 -0.75891099
0.21033169 -0.05 0.057106667 -10.867443 2.4510391e-16 -0.8087377
0.20593787 -0.05 0.056783059 -11.087111 5.7467395e-16 -0.85983401
0.20160831 -0.05 0.056450638 -11.300129 -5.9463829e-17 -0.91207366
0.19734213 -0.05 0.0561096 -11.504612 -1.9950683e-16 -0.96546108
0.19313845 -0.05 0.055760156 -11.702033 2.8378466e-16 -1.019968
0.18899641 -0.05 0.05540249 -11.893687 -3.1252511e-17 -1.0760855
0.18491515 -0.05 0.055036668 -12.082844 -2.0666235e-16 -1.1338094
0.18089384 -0.05 0.054662925 -12.275658 4.4608282e-16 -1.193042
0.17693166 -0.05 0.054281433 -12.467048 5.2566189e-16 -1.253671
0.17302781 -0.05 0.053892335 -12.651478 -4.7365535e-16 -1.3149516
0.16918147 -0.05 0.053495823 -12.821972 3.2466947e-16 -1.3770208
0.16539186 -0.05 0.05309204 -12.973431 -7.3669101e-17 -1.4396341
0.1616582 -0.05 0.052681107 -13.105953 -1.3448443e-17 -1.5036874
0.15797973 -0.05 0.052263136 -13.226881 1.3711878e-16 -1.5699471
0.15435569 -0.05 0.051838336 -13.358965 2.8707394e-16 -1.6405091
0.15078536 -0.05 0.051406806 -13.506704 1.7247963e-17 -1.7156308
0.14726799 -0.05 0.050968672 -13.672794 6.1478588e-17 -1.7948782
0.14380287 -0.05 0.050524066 -13.850344 -7.0582016e-18 -1.8779603
0.1403893 -0.05 0.050073067 -14.039721 2.0463216e-16 -1.9648933
0.13702657 -0.05 0.049615816 -14.243877 -3.3941178e-17 -2.0560548
0.13371401 -0.05 0.049152416 -14.466767 -1.3796076e-17 -2.152052
0.13045093 -0.05 0.048683021 -14.709686 7.6705963e-17 -2.2532456
0.12723666 -0.05 0.048207725 -14.968565 -5.2127442e-16 -2.36014
0.12407057 -0.05 0.04772654 -15.235264 6.8404431e-16 -2.4713113
0.12095201 -0.05 0.047239634 -15.504943 -6.6848614e-16 -2.5862477
0.11788033 -0.05 0.046747113 -15.77383 1.7820828e-16 -2.7051394
0.11485493 -0.05 0.046248981 -16.03785 -3.0323202e-16 -2.8271916
0.11187522 -0.05 0.045745296 -16.295199 -2.9266485e-16 -2.952013
0.10894056 -0.05 0.045236176 -16.545095 -7.3241177e-16 -3.0796964
0.10605039 -0.05 0.04472164 -16.785531 -6.0100675e-16 -3.209944
0.10320411 -0.05 0.044201767 -17.015537 7.9707048e-16 -3.3419431
0.10040116 -0.05 0.043676699 -17.236097 -8.1063905e-17 -3.4768577
0.09764099 -0.05 0.043146365 -17.444928 3.6060755e-16 -3.6140774
0.094923051 -0.05 0.042610806 -17.641667 4.1993896e-16 -3.7527992
0.092246793 -0.05 0.04207015 -17.827151 -7.9506895e-16 -3.8941971
0.089611715 -0.05 0.041524302 -17.999015 3.5780713e-16 -4.0380944
0.087017294 -0.05 0.040973314 -18.159301 7.439187e-17 -4.1840546
0.08446302 -0.05 0.040417238 -18.308344 6.3725608e-16 -4.3322837
0.081948397 -0.05 0.039856088 -18.446252 7.0896113e-16 -4.4824755
0.079472937 -0.05 0.039289893 -18.572964 1.0978734e-15 -4.6355234
0.077036194 -0.05 0.038718537 -18.686442 1.7584726e-17 -4.7903178
0.074637712 -0.05 0.038141999 -18.786691 3.3364056e-16 -4.9463734
0.072277022 -0.05 0.037560339 -18.874994 -6.2982166e-17 -5.1042889
0.069953678 -0.05 0.036973564 -18.951156 4.1820741e-16 -5.2647653
0.06766728 -0.05 0.036381551 -19.013505 4.1454453e-16 -5.4270025
0.065417417 -0.05 0.035784247 -19.062309 -2.5514871e-16 -5.5907289
0.063203677 -0.05 0.035181636 -19.097795 -4.1813222e-16 -5.756508
0.061025688 -0.05 0.034573617 -19.119002 -9.7339036e-17 -5.9239577
0.058883082 -0.05 0.033960094 -19.125619 3.3679328e-16 -6.092732
0.056775498 -0.05 0.033340996 -19.117597 1.3242765e-17 -6.2628454
0.054702597 -0.05 0.03271621 -19.094764 3.0394341e-16 -6.4339538
0.052664033 -0.05 0.032085692 -19.058457 4.1821848e-16 -6.6069025
0.050659518 -0.05 0.031449244 -19.00668 -7.3447342e-16 -6.7807508
0.048688764 -0.05 0.030806706 -18.940004 3.1884802e-16 -6.9553651
0.046751474 -0.05 0.030158006 -18.856548 6.1240307e-16 -7.1314145
0.044847398 -0.05 0.029502951 -18.755131 2.4677091e-16 -7.3082322
0.042976304 -0.05 0.028841348 -18.634912 -5.0442106e-16 -7.4856708
0.041138009 -0.05 0.028172917 -18.493812 1.4478585e-16 -7.6621459
0.039332318 -0.05 0.027497458 -18.33226 -3.7165529e-16 -7.8374395
0.03755904 -0.05 0.026814814 -18.150492 1.9321567e-16 -8.0122756
0.035818048 -0.05 0.026124697 -17.946681 7.7768605e-17 -8.1857337
0.03410925 -0.05 0.025426795 -17.719907 -2.314115e-17 -8.3569435
0.032432578 -0.05 0.024720792 -17.468998 -5.1192685e-16 -8.5248901
0.030787992 -0.05 0.024006371 -17.193714 4.0095031e-16 -8.6892359
0.029175495 -0.05 0.02328318 -16.892566 6.385142e-17 -8.8489238
0.027595155 -0.05 0.022550788 -16.564293 -3.5442186e-16 -9.0022444
0.026047052 -0.05 0.021808816 -16.208541 1.170146e-16 -9.1487698
0.02453135 -0.05 0.021056783 -15.823425 -1.4808449e-16 -9.2863248
0.023048273 -0.05 0.020294178 -15.408484 6.3046472e-16 -9.4139031
0.021598095 -0.05 0.0195205 -14.961778 -4.8306112e-16 -9.5297137
0.02018122 -0.05 0.01873513 -14.482232 9.4969538e-16 -9.6302983
0.018798068 -0.05 0.017937511 -13.97027 -2.5061912e-16 -9.7145202
0.017449235 -0.05 0.017126933 -13.422906 -3.1430891e-16 -9.7771269
0.016135403 -0.05 0.016302657 -12.840375 -3.8850865e-16 -9.8157421
0.014857346 -0.05 0.01546396 -12.222864 -2.1633536e-16 -9.8268094
0.013616029 -0.05 0.014610022 -11.569674 -4.4664414e-16 -9.8058727
0.012412602 -0.05 0.013740015 -10.879307 7.5906759e-17 -9.7448232
0.01124841 -0.05 0.012853079 -10.152207 5.4640962e-16 -9.6386986
0.010125027 -0.05 0.01194826 -9.3914674 8.1138319e-16 -9.4837368
0.0090442289 -0.05 0.01102455 -8.6022499 6.3034576e-16 -9.2720436
0.0080081011 -0.05 0.010081147 -7.7857656 8.9964506e-16 -8.9981944
0.0070191528 -0.05 0.0091172721 -6.9463827 4.0844317e-16 -8.6514805
0.0060801419 -0.05 0.0081319064 -6.092617 -4.9562619e-16 -8.2168351
0.005194143 -0.05 0.0071243959 -5.2367403 5.7135221e-16 -7.6860542
0.0043648915 -0.05 0.0060946652 -4.3930481 -2.5341885e-17 -7.0591159
0.0035962656 -0.05 0.0050424296 -3.5777245 7.8611198e-18 -6.3353915
0.0028923475 -0.05 0.0039679627 -2.7981213 4.1597463e-17 -5.5167712
0.0022578437 -0.05 0.0028726941 -2.0683838 -7.976857e-18 -4.6161295
0.0016972929 -0.05 0.0017582035 -1.4374477 -3.9957001e-16 -3.6520391
0.0012149763 -0.05 0.00062708959 -0.91911965 4.1734843e-16 -2.6468588
0.00081472569 -0.05 -0.00051652056 -0.53471117 1.3323267e-16 -1.6340142
0.00049951814 -0.05 -0.0016681566 -0.30908801 1.7852587e-17 -0.85259708
0.00027098291 -0.05 -0.0028224741 -0.1871408 -5.018931e-18 -0.21529308
0.0001290631 -0.05 -0.003973415 -0.13104419 4.6131823e-18 0.36190942
7.212202e-05 -0.05 -0.0051149502 -0.13651965 3.7628258e-19 1.0253469
0.99669048 -0.05 0.017426765 0.21058974 3.5433464e-16 0.10128913
0.99045857 -0.05 0.018181165 -0.010166065 -4.3825988e-16 -0.00079967411
0.9842258 -0.05 0.018928556 0.015258165 3.298595e-16 -0.00090838927
0.97799221 -0.05 0.019668967 0.0012063667 -1.8622839e-16 9.4697525e-05
0.9717578 -0.05 0.020402502 0.0097485166 -1.9042806e-16 -0.00075403092
0.96552261 -0.05 0.021129323 0.0069062748 3.6075494e-16 -0.00045171536
0.95928663 -0.05 0.02184941 0.0088507039 -8.0899791e-16 -0.00068312355
0.9530499 -0.05 0.022562829 0.0086470219 5.9481491e-16 -0.00060358688
0.94681242 -0.05 0.023269736 0.0094947668 -1.6471641e-16 -0.00064815599
0.94057421 -0.05 0.023970213 0.010075868 -9.6036138e-16 -0.00063731013
0.93433529 -0.05 0.024664267 0.011542397 2.022171e-17 -0.00062288173
0.92809566 -0.05 0.025351959 0.015328211 -2.8481653e-16 -0.00070597314
0.92185533 -0.05 0.026033364 0.017704227 -9.3919669e-16 -0.00094428251
0.91561434 -0.05 0.026708519 0.016129579 -3.6363702e-16 -0.0011316444
0.90937268 -0.05 0.027377575 0.017538846 6.9155509e-17 -0.0013999595
0.90313038 -0.05 0.028040529 0.015080002 -5.4475456e-17 -0.001088857
0.89688743 -0.05 0.028697414 0.016546904 6.8880765e-16 -0.00123294
0.89064387 -0.05 0.029348367 0.014444658 -1.6491777e-16 -0.0010291286
0.88439968 -0.05 0.029993399 0.014863461 -4.1092168e-16 -0.001005137
0.87815488 -0.05 0.030632455 0.01405456 -4.6405426e-16 -0.00095803857
0.87190949 -0.05 0.031265673 0.01282873 1.776152e-16 -0.00082531
0.86566351 -0.05 0.031893121 0.011036123 2.6135718e-16 -0.00061889364
0.85941696 -0.05 0.032514772 0.0088471051 1.3326759e-16 -0.00039252252
0.85316984 -0.05 0.033130711 0.0061850835 5.4565532e-17 -0.00012861118
0.84692217 -0.05 0.033741002 0.0031226761 -2.2855479e-16 0.00015915125
0.84067394 -0.05 0.03434563 -0.00027502582 -3.6638614e-17 0.00044319483
0.83442517 -0.05 0.03494456 -0.0033987413 -3.1319301e-16 0.00069004151
0.82817586 -0.05 0.035537968 -0.0060918954 4.0380675e-16 0.00095299667
0.82192604 -0.05 0.036125812 -0.0091112371 -4.1344891e-17 0.0012244651
0.81567569 -0.05 0.036708049 -0.01234807 2.4428837e-16 0.0015083496
0.80942482 -0.05 0.037284757 -0.015920851 1.5136726e-16 0.001822053
0.80317345 -0.05 0.037855945 -0.019829775 3.3584743e-16 0.0021606533
0.79692158 -0.05 0.038421645 -0.024113522 1.6115461e-16 0.002519107
0.79066922 -0.05 0.038981813 -0.028701543 1.5981584e-18 0.0028985256
0.78441637 -0.05 0.039536535 -0.033729114 1.1920773e-16 0.0033047596
0.77816303 -0.05 0.040085777 -0.039239304 2.077727e-16 0.0037429882
0.77190921 -0.05 0.040629506 -0.045278395 -1.666153e-16 0.0042071066
0.76565492 -0.05 0.041167783 -0.051878643 -1.6722906e-16 0.0047070634
0.75940015 -0.05 0.041700596 -0.059087316 7.8341573e-17 0.0052461449
0.75314494 -0.05 0.042227934 -0.066908885 -4.2664463e-16 0.0058222553
0.74688925 -0.05 0.042749768 -0.075357419 -4.0834874e-16 0.0064321353
0.74063311 -0.05 0.043266083 -0.084401701 3.3905312e-16 0.0070755965
0.73437651 -0.05 0.043776866 -0.094108645 -2.8473667e-16 0.0077553935
0.72811947 -0.05 0.044282081 -0.10446819 2.0937749e-17 0.0084690711
0.72186198 -0.05 0.044781761 -0.11553064 2.2422262e-16 0.0092142074
0.71560405 -0.05 0.045275935 -0.12732123 1.4318534e-16 0.0099863528
0.70934567 -0.05 0.045764429 -0.13977413 2.680371e-16 0.010801116
0.70308686 -0.05 0.046247294 -0.15298077 -8.3071771e-17 0.011638158
0.69682761 -0.05 0.046724497 -0.16702978 9.2833577e-17 0.012519338
0.69056793 -0.05 0.047195942 -0.18176686 -1.9110537e-16 0.013417277
0.68430781 -0.05 0.047661688 -0.19745955 3.1729494e-16 0.014358742
0.67804728 -0.05 0.048121637 -0.21401214 4.570628e-17 0.015330975
0.67178632 -0.05 0.048575798 -0.23169943 7.8196796e-17 0.016379135
0.66552493 -0.05 0.049024054 -0.25152422 9.4739875e-17 0.017474815
0.65926312 -0.05 0.049466307 -0.2725571 8.1785136e-17 0.018638946
0.65300089 -0.05 0.04990264 -0.29478451 -1.4314258e-16 0.019843667
0.64673824 -0.05 0.050332967 -0.31828303 -2.5864553e-17 0.021082906
0.64047518 -0.05 0.050757122 -0.34296405 -1.1692795e-16 0.022350424
0.6342117 -0.05 0.051175073 -0.36890172 3.6055589e-16 0.023651745
0.62794781 -0.05 0.051586821 -0.39623927 6.7437997e-17 0.024983379
0.62168351 -0.05 0.051992229 -0.42493127 -6.4804301e-17 0.026339977
0.61541878 -0.05 0.052391212 -0.45493421 -3.4702788e-16 0.027717375
0.60915366 -0.05 0.052783768 -0.48654605 5.9665416e-17 0.029120209
0.60288812 -0.05 0.053169751 -0.51977499 -2.3585084e-16 0.030543053
0.59662219 -0.05 0.05354909 -0.55468215 -8.3405092e-17 0.031987571
0.59035585 -0.05 0.053921702 -0.59134758 -3.5225461e-17 0.033452677
0.58408909 -0.05 0.054287493 -0.62976993 2.3414531e-16 0.034926675
0.57782195 -0.05 0.054646351 -0.67011998 9.9125049e-17 0.036408163
0.57155441 -0.05 0.054998129 -0.71231397 -9.0368782e-17 0.037888319
0.56528646 -0.05 0.055342794 -0.75676952 3.0694158e-16 0.039380734
0.55901813 -0.05 0.055680225 -0.80363896 5.2588136e-17 0.040879372
0.5527494 -0.05 0.056010261 -0.85280171 -1.2545531e-16 0.042373591
0.54648029 -0.05 0.056332829 -0.90433405 3.0080403e-17 0.043847227
0.54021078 -0.05 0.056647767 -0.95835943 -1.8794913e-16 0.045291327
0.53394089 -0.05 0.056954937 -1.0148854 -1.67301e-16 0.046703747
0.52767062 -0.05 0.057254265 -1.0743865 -1.2385119e-16 0.048083075
0.52139997 -0.05 0.057545582 -1.1370584 -2.3661044e-18 0.049441792
0.51512895 -0.05 0.057828745 -1.2049492 1.1211105e-16 0.050967321
0.50885756 -0.05 0.058103586 -1.2822652 9.5014636e-17 0.052820023
0.5025858 -0.05 0.058369969 -1.3688062 6.5712116e-17 0.054656955
0.49631369 -0.05 0.058627767 -1.458981 -3.7361389e-17 0.056144431
0.49004122 -0.05 0.058876786 -1.5517897 1.0610571e-16 0.057450475
0.4837684 -0.05 0.059116821 -1.6474461 1.0437804e-16 0.058600983
0.47749524 -0.05 0.059347748 -1.7465337 5.2739321e-17 0.059396529
0.47122175 -0.05 0.059569428 -1.8496842 -3.491363e-18 0.059501441
0.46494792 -0.05 0.059781611 -1.9566677 5.5157412e-17 0.059553339
0.45867378 -0.05 0.059984084 -2.0680852 4.4125398e-17 0.059796734
0.45239932 -0.05 0.060176685 -2.1839627 5.7883483e-17 0.059754558
0.44612456 -0.05 0.060359229 -2.3044057 -2.3292496e-16 0.059380188
0.43984952 -0.05 0.060531489 -2.4296949 2.3412178e-16 0.058642093
0.4335742 -0.05 0.060693228 -2.5599593 9.3090199e-17 0.057499692
0.4272986 -0.05 0.060844235 -2.6953582 -1.7120727e-17 0.055953296
0.42102276 -0.05 0.06098431 -2.8357876 1.3418423e-16 0.053939021
0.41474667 -0.05 0.061113205 -2.9813911 7.9354955e-17 0.051397146
0.40847036 -0.05 0.061230642 -3.1322288 5.8646767e-17 0.048274204
0.40219384 -0.05 0.061336398 -3.2887686 5.6772386e-17 0.04454935
0.39591713 -0.05 0.061430185 -3.4508557 4.9631926e-17 0.040119968
0.38964026 -0.05 0.061511698 -3.6180696 5.8204759e-17 0.034992003
0.38336323 -0.05 0.061580719 -3.7908126 1.3943194e-17 0.029147232
0.37708607 -0.05 0.061637009 -3.969757 1.1697247e-17 0.022616771
0.37080881 -0.05 0.061680171 -4.1545682 -3.8147957e-18 0.014815324
0.36453147 -0.05 0.061709884 -4.3447364 -1.0770419e-17 0.0060067065
0.35825408 -0.05 0.061725906 -4.5406937 -4.4894877e-19 -0.0037553097
0.35197668 -0.05 0.061727903 -4.7427222 1.5771091e-18 -0.014862416
0.34569928 -0.05 0.061715518 -4.9510673 1.359046e-18 -0.027216542
0.33942193 -0.05 0.061688365 -5.1657384 1.8041775e-17 -0.040339013
0.33314466 -0.05 0.061646113 -5.3863058 -5.1686028e-17 -0.055110944
0.32686753 -0.05 0.061588375 -5.6127361 -4.8506467e-17 -0.071468791
0.32059055 -0.05 0.061514725 -5.8441922 9.831061e-17 -0.089407737
0.31431379 -0.05 0.061424776 -6.0808476 -3.8472319e-17 -0.10910699
0.30803729 -0.05 0.061318113 -6.3252797 -2.3542421e-18 -0.13083708
0.3017611 -0.05 0.061194304 -6.6114618 4.1458866e-17 -0.15491104
