# yPlus  FACE_DATA 448
# x y z  yPlus
0.29851268 -0.05 -0.058916461 22.916011
0.29287661 -0.05 -0.05903117 22.712241
0.28732139 -0.05 -0.059129661 22.415697
0.2818459 -0.05 -0.059212172 22.13291
0.27644903 -0.05 -0.059278994 21.862305
0.2711297 -0.05 -0.059330449 21.604362
0.2658868 -0.05 -0.059366837 21.359105
0.2607193 -0.05 -0.059388428 21.125624
0.25562616 -0.05 -0.059395534 20.903347
0.25060632 -0.05 -0.059388426 20.691464
0.24565878 -0.05 -0.05936731 20.488233
0.24078254 -0.05 -0.05933249 20.293009
0.23597662 -0.05 -0.059284229 20.104688
0.23124003 -0.05 -0.059222815 19.922783
0.22657183 -0.05 -0.059148513 19.748745
0.22197106 -0.05 -0.059061517 19.581779
0.2174368 -0.05 -0.058962112 19.422287
0.21296813 -0.05 -0.058850544 19.270717
0.20856415 -0.05 -0.058726966 19.12539
0.20422395 -0.05 -0.058591663 18.986905
0.19994668 -0.05 -0.058444872 18.855458
0.19573146 -0.05 -0.058286842 18.730886
0.19157743 -0.05 -0.058117798 18.613561
0.18748377 -0.05 -0.057937844 18.501554
0.18344963 -0.05 -0.05774725 18.395086
0.17947421 -0.05 -0.057546231 18.294993
0.17555671 -0.05 -0.057334962 18.199792
0.17169632 -0.05 -0.057113672 18.110946
0.16789227 -0.05 -0.056882541 18.027408
0.16414379 -0.05 -0.056641723 17.949567
0.16045013 -0.05 -0.056391367 17.876412
0.15681054 -0.05 -0.056131717 17.809003
0.15322428 -0.05 -0.055862901 17.747313
0.14969064 -0.05 -0.05558508 17.690111
0.14620889 -0.05 -0.055298419 17.638282
0.14277835 -0.05 -0.05500303 17.590137
0.13939831 -0.05 -0.054699085 17.545906
0.13606811 -0.05 -0.054386718 17.505433
0.13278706 -0.05 -0.054066111 17.469144
0.12955451 -0.05 -0.053737392 17.438104
0.12636983 -0.05 -0.053400599 17.410451
0.12323236 -0.05 -0.053055932 17.386874
0.12014147 -0.05 -0.052703526 17.368647
0.11709656 -0.05 -0.05234341 17.353949
0.11409703 -0.05 -0.051975671 17.342877
0.11114226 -0.05 -0.051600454 17.335066
0.1082317 -0.05 -0.051217806 17.330518
0.10536474 -0.05 -0.050827831 17.327374
0.10254082 -0.05 -0.050430696 17.329029
0.099759395 -0.05 -0.050026358 17.334059
0.097019921 -0.05 -0.04961488 17.341091
0.094321857 -0.05 -0.049196417 17.35285
0.091664693 -0.05 -0.048770895 17.367688
0.089047911 -0.05 -0.04833839 17.382736
0.086471003 -0.05 -0.047898978 17.402071
0.083933475 -0.05 -0.047452696 17.423517
0.081434839 -0.05 -0.046999592 17.451328
0.078974647 -0.05 -0.046539574 17.481378
0.07655244 -0.05 -0.046072641 17.512239
0.074167753 -0.05 -0.045598874 17.5435
0.071820143 -0.05 -0.0451183 17.576732
0.069509201 -0.05 -0.044630812 17.61106
0.067234514 -0.05 -0.044136379 17.646701
0.064995676 -0.05 -0.043635004 17.687788
0.062792303 -0.05 -0.0431266 17.733909
0.060624027 -0.05 -0.042611092 17.783188
0.058490483 -0.05 -0.042088421 17.834043
0.056391329 -0.05 -0.041558491 17.88561
0.054326214 -0.05 -0.041021276 17.937833
0.052294844 -0.05 -0.040476589 17.994627
0.050296925 -0.05 -0.039924285 18.050701
0.048332154 -0.05 -0.039364302 18.11199
0.046400273 -0.05 -0.038796463 18.1733
0.044501044 -0.05 -0.038220584 18.237112
0.042634268 -0.05 -0.037636392 18.302919
0.040799745 -0.05 -0.037043698 18.372752
0.038997273 -0.05 -0.036442353 18.45334
0.037226714 -0.05 -0.035832075 18.543261
0.035487963 -0.05 -0.035212558 18.63391
0.033780938 -0.05 -0.034583487 18.723737
0.032105582 -0.05 -0.033944551 18.810952
0.030461882 -0.05 -0.033295393 18.904657
0.028849889 -0.05 -0.032635584 19.006461
0.027269663 -0.05 -0.031964738 19.106502
0.025721348 -0.05 -0.031282369 19.203104
0.024205143 -0.05 -0.030587956 19.308398
0.022721302 -0.05 -0.029880987 19.434283
0.021270196 -0.05 -0.029160825 19.57281
0.019852222 -0.05 -0.028426892 19.684741
0.018467944 -0.05 -0.027678456 19.7461
0.017118007 -0.05 -0.026914744 19.737776
0.015803152 -0.05 -0.026135 19.683944
0.014524307 -0.05 -0.025338361 19.63907
0.013282583 -0.05 -0.024523947 19.71279
0.012079282 -0.05 -0.02369084 19.925008
0.010915938 -0.05 -0.022838012 20.298743
0.0097942749 -0.05 -0.021964378 20.826633
0.0087163409 -0.05 -0.021069041 21.530322
0.0076846072 -0.05 -0.020151109 22.420566
0.0067017827 -0.05 -0.019209438 23.324295
0.0057709089 -0.05 -0.018243237 24.0862
0.004895714 -0.05 -0.017252259 24.64536
0.0040800592 -0.05 -0.016236045 24.933076
0.0033280349 -0.05 -0.01519468 24.941312
0.0026444078 -0.05 -0.01412938 24.623749
0.0020337836 -0.05 -0.013041518 23.986434
0.0015005574 -0.05 -0.011933494 22.989101
0.0010487443 -0.05 -0.010809257 21.589903
0.00068152171 -0.05 -0.0096731368 19.800496
0.00040075996 -0.05 -0.0085303987 17.617559
0.00020667757 -0.05 -0.0073870972 14.998423
9.7913598e-05 -0.05 -0.0062493295 11.906774
0.99671092 -0.05 0.016527645 69.698718
0.99051974 -0.05 0.015490789 59.803195
0.98432738 -0.05 0.014460896 59.609083
0.97813388 -0.05 0.013437941 59.497409
0.97193925 -0.05 0.012421815 59.342825
0.96574354 -0.05 0.011412362 59.169552
0.95954674 -0.05 0.010409599 58.983508
0.95334887 -0.05 0.0094134627 58.785222
0.94714997 -0.05 0.0084237995 58.579425
0.94095004 -0.05 0.007440525 58.365322
0.9347491 -0.05 0.0064636345 58.145416
0.92854717 -0.05 0.0054930682 57.918732
0.92234427 -0.05 0.0045287499 57.687291
0.91614041 -0.05 0.0035706449 57.448724
0.90993561 -0.05 0.0026186027 57.204789
0.90372989 -0.05 0.0016726261 56.954551
0.89752325 -0.05 0.00073268375 56.69827
0.89131571 -0.05 -0.00020135975 56.436721
0.8851073 -0.05 -0.001129518 56.172052
0.878898 -0.05 -0.0020517342 55.904313
0.87268784 -0.05 -0.0029681455 55.635078
0.86647683 -0.05 -0.0038788196 55.364503
0.86026499 -0.05 -0.0047837277 55.093104
0.85405232 -0.05 -0.0056829562 54.820839
0.84783884 -0.05 -0.0065765671 54.547865
0.84162455 -0.05 -0.0074645469 54.273464
0.83540945 -0.05 -0.008346859 53.996807
0.82919358 -0.05 -0.0092236784 53.716345
0.82297693 -0.05 -0.010094965 53.431724
0.8167595 -0.05 -0.010960673 53.141381
0.81054131 -0.05 -0.01182088 52.84689
0.80432235 -0.05 -0.012675597 52.548849
0.79810265 -0.05 -0.013524854 52.249801
0.79188221 -0.05 -0.014368607 51.950396
0.78566102 -0.05 -0.015206943 51.652758
0.77943912 -0.05 -0.016039825 51.35607
0.77321647 -0.05 -0.016867224 51.059793
0.7669931 -0.05 -0.017689197 50.763742
0.76076902 -0.05 -0.018505732 50.467439
0.75454423 -0.05 -0.019316819 50.168617
0.74831873 -0.05 -0.020122429 49.865573
0.74209252 -0.05 -0.020922547 49.55603
0.73586561 -0.05 -0.021717159 49.239953
0.72963798 -0.05 -0.022506228 48.918342
0.72340967 -0.05 -0.023289789 48.594795
0.71718067 -0.05 -0.024067869 48.272256
0.71095096 -0.05 -0.024840296 47.951794
0.70472057 -0.05 -0.02560712 47.633753
0.69848947 -0.05 -0.026368307 47.318548
0.69225768 -0.05 -0.027123762 47.004044
0.68602521 -0.05 -0.027873544 46.689424
0.67979204 -0.05 -0.028617552 46.370024
0.6735582 -0.05 -0.029355798 46.042206
0.66732365 -0.05 -0.030088166 45.702867
0.66108841 -0.05 -0.030814555 45.353544
0.65485249 -0.05 -0.03153505 44.999985
0.64861587 -0.05 -0.032249564 44.64684
0.64237855 -0.05 -0.032957931 44.294173
0.63614053 -0.05 -0.033660119 43.943121
0.62990183 -0.05 -0.03435613 43.593836
0.62366242 -0.05 -0.035045826 43.244557
0.61742231 -0.05 -0.035729124 42.891757
0.6111815 -0.05 -0.036406017 42.530036
0.60493999 -0.05 -0.037076365 42.151284
0.59869777 -0.05 -0.037740094 41.751586
0.59245483 -0.05 -0.038397119 41.335829
0.58621118 -0.05 -0.039047351 40.91741
0.57996682 -0.05 -0.039690673 40.502574
0.57372174 -0.05 -0.040326942 40.091696
0.56747594 -0.05 -0.040956123 39.685237
0.56122942 -0.05 -0.041578097 39.282193
0.55498217 -0.05 -0.042192699 38.87974
0.54873419 -0.05 -0.042799859 38.471885
0.54248548 -0.05 -0.043399415 38.04674
0.53623603 -0.05 -0.043991227 37.592709
0.52998585 -0.05 -0.044575225 37.113933
0.52373492 -0.05 -0.045151237 36.635299
0.51748324 -0.05 -0.045719119 36.15716
0.51123082 -0.05 -0.046278705 35.681548
0.50497766 -0.05 -0.046829858 35.210974
0.49872374 -0.05 -0.047372452 34.743277
0.49246908 -0.05 -0.047906292 34.276282
0.48621365 -0.05 -0.048431172 33.810141
0.47995746 -0.05 -0.048946969 33.344366
0.47370052 -0.05 -0.049453546 32.880005
0.46744283 -0.05 -0.04995065 32.415174
0.46118437 -0.05 -0.050438067 31.950058
0.45492515 -0.05 -0.050915637 31.484548
0.44866518 -0.05 -0.051383174 31.023849
0.44240444 -0.05 -0.051840452 30.571624
0.43614296 -0.05 -0.052287232 30.130005
0.4298807 -0.05 -0.052723301 29.699784
0.42361771 -0.05 -0.053148464 29.279736
0.41735396 -0.05 -0.053562468 28.873584
0.41108948 -0.05 -0.053965037 28.483825
0.40482426 -0.05 -0.054355945 28.110842
0.3985583 -0.05 -0.054734906 27.752008
0.39229161 -0.05 -0.055101612 27.403095
0.3860242 -0.05 -0.055455848 27.063938
0.37975609 -0.05 -0.055797371 26.733814
0.37348727 -0.05 -0.056125784 26.411833
0.36721778 -0.05 -0.056440765 26.096607
0.3609476 -0.05 -0.056742073 25.78952
0.35467677 -0.05 -0.05702937 25.489446
0.3484053 -0.05 -0.0573023 25.19697
0.34213321 -0.05 -0.057560474 24.91095
0.33586051 -0.05 -0.057803562 24.632185
0.32958723 -0.05 -0.058031173 24.359985
0.3233134 -0.05 -0.058242883 24.09373
0.31703903 -0.05 -0.058438299 23.834069
0.31076416 -0.05 -0.058617008 23.583223
0.30448884 -0.05 -0.058778574 23.214487
0.29578484 -0.05 0.061060437 22.641579
0.29014938 -0.05 0.060918873 22.789487
0.28459544 -0.05 0.060764783 23.07399
0.27912186 -0.05 0.060598353 23.345203
0.27372753 -0.05 0.060419822 23.610388
0.26841135 -0.05 0.060229465 23.868096
0.26317222 -0.05 0.060027531 24.120587
0.25800907 -0.05 0.059814241 24.370433
0.25292086 -0.05 0.059589861 24.61602
0.24790654 -0.05 0.059354613 24.856231
0.24296508 -0.05 0.059108659 25.090027
0.23809546 -0.05 0.058852254 25.318996
0.23329669 -0.05 0.058585618 25.541412
0.2285678 -0.05 0.058308994 25.755855
0.22390779 -0.05 0.058022604 25.965071
0.21931573 -0.05 0.057726596 26.170051
0.21479067 -0.05 0.057421216 26.369761
0.21033169 -0.05 0.057106667 26.563224
0.20593787 -0.05 0.056783059 26.747438
0.20160831 -0.05 0.056450638 26.921925
0.19734213 -0.05 0.0561096 27.085005
0.19313845 -0.05 0.055760156 27.238767
0.18899641 -0.05 0.05540249 27.385147
0.18491515 -0.05 0.055036668 27.528184
0.18089384 -0.05 0.054662925 27.674632
0.17693166 -0.05 0.054281433 27.819271
0.17302781 -0.05 0.053892335 27.955582
0.16918147 -0.05 0.053495823 28.076648
0.16539186 -0.05 0.05309204 28.176752
0.1616582 -0.05 0.052681107 28.257292
0.15797973 -0.05 0.052263136 28.326047
0.15435569 -0.05 0.051838336 28.407531
0.15078536 -0.05 0.051406806 28.506957
0.14726799 -0.05 0.050968672 28.626195
0.14380287 -0.05 0.050524066 28.757998
0.1403893 -0.05 0.050073067 28.902225
0.13702657 -0.05 0.049615816 29.061448
0.13371401 -0.05 0.049152416 29.240111
0.13045093 -0.05 0.048683021 29.437948
0.12723666 -0.05 0.048207725 29.65142
0.12407057 -0.05 0.04772654 29.871824
0.12095201 -0.05 0.047239634 30.093663
0.11788033 -0.05 0.046747113 30.313807
0.11485493 -0.05 0.046248981 30.528298
0.11187522 -0.05 0.045745296 30.735635
0.10894056 -0.05 0.045236176 30.934924
0.10605039 -0.05 0.04472164 31.125455
0.10320411 -0.05 0.044201767 31.304857
0.10040116 -0.05 0.043676699 31.47565
0.09764099 -0.05 0.043146365 31.636717
0.094923051 -0.05 0.042610806 31.785799
0.092246793 -0.05 0.04207015 31.925301
0.089611715 -0.05 0.041524302 32.054625
0.087017294 -0.05 0.040973314 32.172653
0.08446302 -0.05 0.040417238 32.282705
0.081948397 -0.05 0.039856088 32.38245
0.079472937 -0.05 0.039289893 32.474735
0.077036194 -0.05 0.038718537 32.55698
0.074637712 -0.05 0.038141999 32.628731
0.072277022 -0.05 0.037560339 32.690696
0.069953678 -0.05 0.036973564 32.744395
0.06766728 -0.05 0.036381551 32.788834
0.065417417 -0.05 0.035784247 32.822776
0.063203677 -0.05 0.035181636 32.847719
0.061025688 -0.05 0.034573617 32.863389
0.058883082 -0.05 0.033960094 32.869222
0.056775498 -0.05 0.033340996 32.86516
0.054702597 -0.05 0.03271621 32.851846
0.052664033 -0.05 0.032085692 32.828923
0.050659518 -0.05 0.031449244 32.799888
0.048688764 -0.05 0.030806706 32.759432
0.046751474 -0.05 0.030158006 32.709869
0.044847398 -0.05 0.029502951 32.649461
0.042976304 -0.05 0.028841348 32.579823
0.041138009 -0.05 0.028172917 32.498855
0.039332318 -0.05 0.027497458 32.405445
0.03755904 -0.05 0.026814814 32.300824
0.035818048 -0.05 0.026124697 32.186341
0.03410925 -0.05 0.025426795 32.059374
0.032432578 -0.05 0.024720792 31.921312
0.030787992 -0.05 0.024006371 31.769921
0.029175495 -0.05 0.02328318 31.607308
0.027595155 -0.05 0.022550788 31.431195
0.026047052 -0.05 0.021808816 31.241381
0.02453135 -0.05 0.021056783 31.038989
0.023048273 -0.05 0.020294178 30.821863
0.021598095 -0.05 0.0195205 30.588826
0.02018122 -0.05 0.01873513 30.340155
0.018798068 -0.05 0.017937511 30.072424
0.017449235 -0.05 0.017126933 29.788395
0.016135403 -0.05 0.016302657 29.479134
0.014857346 -0.05 0.01546396 29.149234
0.013616029 -0.05 0.014610022 28.790553
0.012412602 -0.05 0.013740015 28.399784
0.01124841 -0.05 0.012853079 27.967782
0.010125027 -0.05 0.01194826 27.495736
0.0090442289 -0.05 0.01102455 26.971172
0.0080081011 -0.05 0.010081147 26.384859
0.0070191528 -0.05 0.0091172721 25.720153
0.0060801419 -0.05 0.0081319064 24.957096
0.005194143 -0.05 0.0071243959 24.065044
0.0043648915 -0.05 0.0060946652 23.02864
0.0035962656 -0.05 0.0050424296 21.813377
0.0028923475 -0.05 0.0039679627 20.372951
0.0022578437 -0.05 0.0028726941 18.661778
0.0016972929 -0.05 0.0017582035 16.642922
0.0012149763 -0.05 0.00062708959 14.220813
0.00081472569 -0.05 -0.00051652056 11.230893
0.00049951814 -0.05 -0.0016681566 8.1692001
0.00027098291 -0.05 -0.0028224741 4.3433018
0.0001290631 -0.05 -0.003973415 5.1954736
7.212202e-05 -0.05 -0.0051149502 8.7393982
0.99669048 -0.05 0.017426765 3.6289965
0.99045857 -0.05 0.018181165 0.87586643
0.9842258 -0.05 0.018928556 1.0638895
0.97799221 -0.05 0.019668967 0.298188
0.9717578 -0.05 0.020402502 0.85087597
0.96552261 -0.05 0.021129323 0.71541741
0.95928663 -0.05 0.02184941 0.8105624
0.9530499 -0.05 0.022562829 0.80125604
0.94681242 -0.05 0.023269736 0.83921005
0.94057421 -0.05 0.023970213 0.86487273
0.93433529 -0.05 0.024664267 0.92463888
0.92809566 -0.05 0.025351959 1.0657759
0.92185533 -0.05 0.026033364 1.1446539
0.91561434 -0.05 0.026708519 1.0945139
0.90937268 -0.05 0.027377575 1.1411066
0.90313038 -0.05 0.028040529 1.0587707
0.89688743 -0.05 0.028697414 1.1083361
0.89064387 -0.05 0.029348367 1.035851
0.88439968 -0.05 0.029993399 1.0499964
0.87815488 -0.05 0.030632455 1.0214405
0.87190949 -0.05 0.031265673 0.97538216
0.86566351 -0.05 0.031893121 0.9047999
0.85941696 -0.05 0.032514772 0.80952583
0.85316984 -0.05 0.033130711 0.67675812
0.84692217 -0.05 0.033741002 0.48017192
0.84067394 -0.05 0.03434563 0.18231287
0.83442517 -0.05 0.03494456 0.50619487
0.82817586 -0.05 0.035537968 0.67566271
0.82192604 -0.05 0.036125812 0.82514765
0.81567569 -0.05 0.036708049 0.96011688
0.80942482 -0.05 0.037284757 1.0896465
0.80317345 -0.05 0.037855945 1.2161058
0.79692158 -0.05 0.038421645 1.3405671
0.79066922 -0.05 0.038981813 1.4624155
0.78441637 -0.05 0.039536535 1.5849939
0.77816303 -0.05 0.040085777 1.7095923
0.77190921 -0.05 0.040629506 1.8361682
0.76565492 -0.05 0.041167783 1.9653796
0.75940015 -0.05 0.041700596 2.0973545
0.75314494 -0.05 0.042227934 2.2320874
0.74688925 -0.05 0.042749768 2.3685525
0.74063311 -0.05 0.043266083 2.5066294
0.73437651 -0.05 0.043776866 2.6467232
0.72811947 -0.05 0.044282081 2.7886783
0.72186198 -0.05 0.044781761 2.9324557
0.71560405 -0.05 0.045275935 3.0784255
0.70934567 -0.05 0.045764429 3.2254258
0.70308686 -0.05 0.046247294 3.374496
0.69682761 -0.05 0.046724497 3.5258851
0.69056793 -0.05 0.047195942 3.6781077
0.68430781 -0.05 0.047661688 3.8335424
0.67804728 -0.05 0.048121637 3.9910051
0.67178632 -0.05 0.048575798 4.1525949
0.66552493 -0.05 0.049024054 4.3265917
0.65926312 -0.05 0.049466307 4.5038451
0.65300089 -0.05 0.04990264 4.6839265
0.64673824 -0.05 0.050332967 4.866977
0.64047518 -0.05 0.050757122 5.0521402
0.6342117 -0.05 0.051175073 5.2397103
0.62794781 -0.05 0.051586821 5.4303807
0.62168351 -0.05 0.051992229 5.6235481
0.61541878 -0.05 0.052391212 5.818686
0.60915366 -0.05 0.052783768 6.0174939
0.60288812 -0.05 0.053169751 6.2196252
0.59662219 -0.05 0.05354909 6.4250806
0.59035585 -0.05 0.053921702 6.6340487
0.58408909 -0.05 0.054287493 6.8462171
0.57782195 -0.05 0.054646351 7.0621463
0.57155441 -0.05 0.054998129 7.2811148
0.56528646 -0.05 0.055342794 7.5048795
0.55901813 -0.05 0.055680225 7.7338223
0.5527494 -0.05 0.056010261 7.9668929
0.54648029 -0.05 0.056332829 8.2041573
0.54021078 -0.05 0.056647767 8.4456994
0.53394089 -0.05 0.056954937 8.6912771
0.52767062 -0.05 0.057254265 8.9424697
0.52139997 -0.05 0.057545582 9.1997172
0.51512895 -0.05 0.057828745 9.4703933
0.50885756 -0.05 0.058103586 9.7696226
0.5025858 -0.05 0.058369969 10.093898
0.49631369 -0.05 0.058627767 10.421202
0.49004122 -0.05 0.058876786 10.747561
0.4837684 -0.05 0.059116821 11.073982
0.47749524 -0.05 0.059347748 11.40215
0.47122175 -0.05 0.059569428 11.734075
0.46494792 -0.05 0.059781611 12.068627
0.45867378 -0.05 0.059984084 12.407607
0.45239932 -0.05 0.060176685 12.750491
0.44612456 -0.05 0.060359229 13.097554
0.43984952 -0.05 0.060531489 13.448881
0.4335742 -0.05 0.060693228 13.804767
0.4272986 -0.05 0.060844235 14.16506
0.42102276 -0.05 0.06098431 14.529479
0.41474667 -0.05 0.061113205 14.897667
0.40847036 -0.05 0.061230642 15.269903
0.40219384 -0.05 0.061336398 15.646691
0.39591713 -0.05 0.061430185 16.027844
0.38964026 -0.05 0.061511698 16.411509
0.38336323 -0.05 0.061580719 16.798893
0.37708607 -0.05 0.061637009 17.190794
0.37080881 -0.05 0.061680171 17.586638
0.36453147 -0.05 0.061709884 17.984558
0.35825408 -0.05 0.061725906 18.38572
0.35197668 -0.05 0.061727903 18.790126
0.34569928 -0.05 0.061715518 19.198548
0.33942193 -0.05 0.061688365 19.609947
0.33314466 -0.05 0.061646113 20.024248
0.32686753 -0.05 0.061588375 20.440494
0.32059055 -0.05 0.061514725 20.857661
0.31431379 -0.05 0.061424776 21.275229
0.30803729 -0.05 0.061318113 21.698976
0.3017611 -0.05 0.061194304 22.248427
