# p  FACE_DATA 448
# x y z  p
0.29968323 -0.05 -0.057932768 99408.794
0.29405059 -0.05 -0.058160363 99402.011
0.28849846 -0.05 -0.058370123 99394.66
0.28302573 -0.05 -0.058562309 99387.564
0.27763128 -0.05 -0.058737235 99380.499
0.27231404 -0.05 -0.058895244 99373.572
0.26707292 -0.05 -0.059036658 99366.694
0.26190689 -0.05 -0.059161766 99359.982
0.25681491 -0.05 -0.059270904 99353.246
0.25179594 -0.05 -0.059364361 99346.678
0.24684897 -0.05 -0.059442365 99340.188
0.24197302 -0.05 -0.059505239 99333.833
0.23716709 -0.05 -0.059553267 99327.58
0.23243022 -0.05 -0.059586754 99321.341
0.22776147 -0.05 -0.059605987 99315.194
0.22315989 -0.05 -0.059611176 99309.189
0.21862455 -0.05 -0.059602628 99303.142
0.21415454 -0.05 -0.059580605 99297.286
0.20974896 -0.05 -0.059545277 99291.569
0.20540693 -0.05 -0.05949695 99285.909
0.20112757 -0.05 -0.059435876 99280.372
0.19691002 -0.05 -0.059362323 99274.803
0.19275345 -0.05 -0.059276531 99269.364
0.188657 -0.05 -0.059178623 99264.124
0.18461985 -0.05 -0.059068886 99258.864
0.18064121 -0.05 -0.058947547 99253.811
0.17672026 -0.05 -0.058814801 99248.759
0.17285621 -0.05 -0.058670892 99243.803
0.1690483 -0.05 -0.058516015 99238.858
0.16529574 -0.05 -0.058350339 99234.106
0.16159781 -0.05 -0.05817403 99229.435
0.15795374 -0.05 -0.057987344 99224.807
0.15436282 -0.05 -0.057790427 99220.355
0.15082432 -0.05 -0.057583452 99215.91
0.14733753 -0.05 -0.057366601 99211.61
0.14390175 -0.05 -0.057139996 99207.421
0.14051631 -0.05 -0.056903826 99203.321
0.13718052 -0.05 -0.056658236 99199.338
0.13389371 -0.05 -0.056403424 99195.305
0.13065523 -0.05 -0.056139528 99191.476
0.12746444 -0.05 -0.055866604 99187.818
0.12432069 -0.05 -0.055584859 99184.124
0.12122335 -0.05 -0.055294444 99180.554
0.11817184 -0.05 -0.0549954 99177.149
0.11516554 -0.05 -0.054687825 99173.877
0.11220386 -0.05 -0.054371878 99170.667
0.1092862 -0.05 -0.054047615 99167.736
0.10641201 -0.05 -0.053715153 99164.74
0.10358071 -0.05 -0.053374671 99161.794
0.10079174 -0.05 -0.053026134 99159.166
0.098044573 -0.05 -0.05266962 99156.53
0.095338666 -0.05 -0.052305291 99153.967
0.092673511 -0.05 -0.051933086 99151.767
0.09004859 -0.05 -0.051553092 99149.566
0.087463396 -0.05 -0.051165392 99147.665
0.084917436 -0.05 -0.050770033 99145.649
0.082410225 -0.05 -0.050367078 99143.834
0.079941312 -0.05 -0.049956438 99142.322
0.077510236 -0.05 -0.049538123 99141.03
0.075116537 -0.05 -0.049112224 99139.73
0.07275977 -0.05 -0.048678776 99138.626
0.070439526 -0.05 -0.048237683 99137.925
0.068155391 -0.05 -0.047788918 99137.422
0.065906957 -0.05 -0.047332495 99137.162
0.063693842 -0.05 -0.046868335 99137.209
0.061515673 -0.05 -0.046396367 99137.506
0.059372087 -0.05 -0.045916543 99138.022
0.057262738 -0.05 -0.045428772 99138.791
0.055187275 -0.05 -0.044933035 99139.76
0.0531454 -0.05 -0.044429153 99141.541
0.051136819 -0.05 -0.043916984 99143.595
0.049161223 -0.05 -0.043396476 99146.088
0.047218354 -0.05 -0.042867453 99148.804
0.045307969 -0.05 -0.042329737 99151.953
0.043429866 -0.05 -0.04178306 99155.769
0.041583836 -0.05 -0.041227237 99160.201
0.039769679 -0.05 -0.040662122 99165.397
0.037987251 -0.05 -0.040087437 99171.557
0.036236437 -0.05 -0.039502877 99178.45
0.034517151 -0.05 -0.03890813 99186.146
0.032829332 -0.05 -0.038302884 99195.069
0.031172957 -0.05 -0.037686786 99205.473
0.02954807 -0.05 -0.037059402 99216.888
0.027954722 -0.05 -0.036420348 99229.688
0.026393047 -0.05 -0.035769134 99244.36
0.024863235 -0.05 -0.035105235 99260.435
0.023365528 -0.05 -0.034428133 99278.186
0.021900286 -0.05 -0.033737186 99298.196
0.020467895 -0.05 -0.033031808 99320.619
0.0190689 -0.05 -0.032311253 99346.317
0.017703934 -0.05 -0.031574739 99375.127
0.016373722 -0.05 -0.030821493 99408.032
0.015079175 -0.05 -0.030050633 99445.2
0.013821385 -0.05 -0.029261258 99487.389
0.012601636 -0.05 -0.028452424 99535.254
0.011421439 -0.05 -0.027623074 99590.838
0.0102825 -0.05 -0.026772086 99654.125
0.0091868458 -0.05 -0.025898522 99724.848
0.0081369301 -0.05 -0.025001444 99803.321
0.007135438 -0.05 -0.024079652 99891.264
0.0061853948 -0.05 -0.023132293 99990.527
0.0052905229 -0.05 -0.022159046 100101.88
0.0044546738 -0.05 -0.021159375 100224.96
0.0036819384 -0.05 -0.020133286 100359.48
0.002977107 -0.05 -0.019081896 100503.89
0.002344812 -0.05 -0.018006484 100656.23
0.0017894954 -0.05 -0.016909365 100812.44
0.0013152508 -0.05 -0.015794404 100967.39
0.00092534157 -0.05 -0.014665869 101115.61
0.00062174331 -0.05 -0.013528984 101251.39
0.00040479577 -0.05 -0.012389801 101367.08
0.00027326038 -0.05 -0.01125444 101458.59
0.99622996 -0.05 0.031483417 100170.95
0.99006079 -0.05 0.03032274 100171.51
0.98389031 -0.05 0.029169 100166.91
0.97771854 -0.05 0.028022173 100165.19
0.97154552 -0.05 0.026882152 100162.5
0.96537128 -0.05 0.025748781 100160.31
0.9591958 -0.05 0.024622076 100157.98
0.95301913 -0.05 0.023501977 100155.72
0.9468413 -0.05 0.022388327 100153.38
0.94066231 -0.05 0.021281046 100151.01
0.9344822 -0.05 0.020180126 100148.56
0.92830096 -0.05 0.019085509 100146.03
0.92211861 -0.05 0.017997119 100143.37
0.91593519 -0.05 0.016914923 100140.59
0.90975071 -0.05 0.015838769 100137.62
0.90356518 -0.05 0.014768661 100134.51
0.89737861 -0.05 0.013704568 100131.11
0.89119104 -0.05 0.012646354 100127.5
0.88500247 -0.05 0.011594007 100123.59
0.87881289 -0.05 0.010547583 100119.44
0.87262233 -0.05 0.0095069461 100114.86
0.86643082 -0.05 0.0084720281 100110
0.86023835 -0.05 0.0074428577 100104.75
0.85404495 -0.05 0.0064193494 100099.17
0.84785061 -0.05 0.0054014411 100093.08
0.84165535 -0.05 0.0043891469 100086.71
0.83545918 -0.05 0.0033825029 100079.96
0.82926213 -0.05 0.0023813348 100072.86
0.82306417 -0.05 0.0013856829 100065.41
0.81686534 -0.05 0.00039559359 100057.7
0.81066562 -0.05 -0.00058901212 100049.76
0.80446504 -0.05 -0.0015681436 100041.61
0.7982636 -0.05 -0.002541832 100033.22
0.79206131 -0.05 -0.0035100322 100024.72
0.78585817 -0.05 -0.0044728302 100016.06
0.77965419 -0.05 -0.0054301908 100007.39
0.77344937 -0.05 -0.0063820825 99998.639
0.76724373 -0.05 -0.0073285657 99989.887
0.76103726 -0.05 -0.0082696262 99981.124
0.75482996 -0.05 -0.0092052533 99972.368
0.74862184 -0.05 -0.010135419 99963.654
0.74241291 -0.05 -0.011060109 99954.978
0.73620316 -0.05 -0.011979306 99946.39
0.7299926 -0.05 -0.012892977 99937.888
0.72378124 -0.05 -0.013801153 99929.433
0.71756907 -0.05 -0.014703866 99921.003
0.71135609 -0.05 -0.01560094 99912.725
0.7051423 -0.05 -0.016492425 99904.393
0.69892771 -0.05 -0.017378288 99896.276
0.6927123 -0.05 -0.018258435 99888.154
0.6864961 -0.05 -0.019132923 99880.151
0.6802791 -0.05 -0.020001653 99872.205
0.67406129 -0.05 -0.020864636 99864.301
0.66784266 -0.05 -0.021721755 99856.505
0.66162323 -0.05 -0.022572911 99848.757
0.65540298 -0.05 -0.023418188 99840.976
0.64918193 -0.05 -0.024257498 99833.304
0.64296007 -0.05 -0.025090678 99825.687
0.63673736 -0.05 -0.025917693 99818.107
0.63051386 -0.05 -0.026738546 99810.524
0.62428952 -0.05 -0.0275531 99803.072
0.61806435 -0.05 -0.02836127 99795.608
0.61183835 -0.05 -0.029163052 99788.169
0.60561151 -0.05 -0.029958302 99780.788
0.59938384 -0.05 -0.03074695 99773.411
0.59315532 -0.05 -0.031528911 99766.044
0.58692596 -0.05 -0.032304093 99758.644
0.58069573 -0.05 -0.033072381 99751.299
0.57446466 -0.05 -0.033833633 99743.981
0.56823272 -0.05 -0.034587812 99736.625
0.56199992 -0.05 -0.035334798 99729.304
0.55576623 -0.05 -0.03607443 99721.999
0.54953166 -0.05 -0.036806636 99714.677
0.54329622 -0.05 -0.037531254 99707.413
0.53705987 -0.05 -0.038248145 99700.124
0.53082264 -0.05 -0.038957237 99692.821
0.52458451 -0.05 -0.039658359 99685.519
0.51834547 -0.05 -0.04035137 99678.167
0.51210551 -0.05 -0.0410361 99670.836
0.50586464 -0.05 -0.041712414 99663.455
0.49962285 -0.05 -0.042380186 99656.07
0.49338014 -0.05 -0.04303922 99648.67
0.48713648 -0.05 -0.043689313 99641.303
0.48089188 -0.05 -0.044330338 99633.868
0.47464635 -0.05 -0.04496216 99626.425
0.46839986 -0.05 -0.045584526 99618.987
0.46215243 -0.05 -0.046197224 99611.548
0.45590404 -0.05 -0.04680009 99604.077
0.44965468 -0.05 -0.047392941 99596.587
0.44340437 -0.05 -0.047975551 99589.061
0.43715308 -0.05 -0.048547679 99581.511
0.43090083 -0.05 -0.049109115 99573.914
0.4246476 -0.05 -0.049659661 99566.276
0.41839341 -0.05 -0.050199066 99558.621
0.41213824 -0.05 -0.050727052 99550.953
0.40588211 -0.05 -0.051243394 99543.216
0.39962501 -0.05 -0.051747808 99535.509
0.39336692 -0.05 -0.052239983 99527.812
0.38710787 -0.05 -0.052719704 99520.06
0.38084785 -0.05 -0.053186729 99512.249
0.37458688 -0.05 -0.053640662 99504.512
0.36832495 -0.05 -0.054081178 99496.693
0.36206208 -0.05 -0.054508039 99488.82
0.35579826 -0.05 -0.054920903 99480.895
0.34953352 -0.05 -0.055319416 99472.952
0.34326785 -0.05 -0.055703189 99465.003
0.33700127 -0.05 -0.056071891 99456.986
0.33073382 -0.05 -0.056425132 99449.052
0.32446548 -0.05 -0.056762485 99441.136
0.31819629 -0.05 -0.057083559 99433.026
0.31192627 -0.05 -0.057387938 99424.528
0.30565544 -0.05 -0.057675187 99417.303
0.29455242 -0.05 0.061965404 99527.725
0.28892092 -0.05 0.061710972 99524.015
0.28337117 -0.05 0.061445649 99521.512
0.27790203 -0.05 0.061169597 99518.96
0.27251235 -0.05 0.060883037 99516.547
0.26720106 -0.05 0.060586218 99514.281
0.26196703 -0.05 0.060279367 99512.103
0.2568092 -0.05 0.059962686 99510.122
0.2517265 -0.05 0.059636417 99508.146
0.24671789 -0.05 0.059300763 99506.371
0.24178234 -0.05 0.058955863 99504.707
0.23691885 -0.05 0.058601955 99503.186
0.23212639 -0.05 0.058239239 99501.774
0.22740398 -0.05 0.057867935 99500.456
0.22275064 -0.05 0.057488245 99499.264
0.21816544 -0.05 0.057100303 99498.277
0.21364741 -0.05 0.056704333 99497.289
0.20919561 -0.05 0.056300518 99496.495
0.20480916 -0.05 0.055888953 99495.883
0.20048714 -0.05 0.055469864 99495.387
0.19622865 -0.05 0.055043429 99495.061
0.19203281 -0.05 0.05460984 99494.753
0.18789875 -0.05 0.054169267 99494.622
0.18382563 -0.05 0.053721758 99494.727
0.17981263 -0.05 0.053267529 99494.835
0.1758589 -0.05 0.052806739 99495.206
0.17196362 -0.05 0.052339513 99495.663
0.16812599 -0.05 0.051866025 99496.299
0.16434523 -0.05 0.051386405 99497.02
0.16062055 -0.05 0.050900755 99497.99
0.1569512 -0.05 0.050409177 99499.084
0.1533364 -0.05 0.049911862 99500.248
0.14977543 -0.05 0.049408893 99501.634
0.14626754 -0.05 0.048900381 99503.105
0.14281203 -0.05 0.048386447 99504.826
0.13940817 -0.05 0.047867153 99506.742
0.13605528 -0.05 0.047342628 99508.842
0.13275266 -0.05 0.04681296 99511.178
0.12949964 -0.05 0.046278288 99513.526
0.12629553 -0.05 0.045738694 99516.109
0.12313973 -0.05 0.045194179 99518.915
0.12003155 -0.05 0.044644896 99521.766
0.11697035 -0.05 0.044090938 99524.868
0.11395553 -0.05 0.043532296 99528.248
0.1109865 -0.05 0.042969019 99531.87
0.10806264 -0.05 0.042401211 99535.649
0.10518336 -0.05 0.041828878 99539.82
0.10234807 -0.05 0.041252089 99544.042
0.099556197 -0.05 0.040670975 99548.376
0.096807203 -0.05 0.040085452 99553.107
0.094100538 -0.05 0.039495551 99557.988
0.091435648 -0.05 0.038901389 99563.119
0.088812033 -0.05 0.038302862 99568.76
0.086229172 -0.05 0.037700009 99574.519
0.083686549 -0.05 0.037092873 99580.739
0.081183673 -0.05 0.03648146 99587.042
0.078720052 -0.05 0.035865787 99593.656
0.076295245 -0.05 0.03524573 99600.617
0.073908794 -0.05 0.034621258 99607.982
0.07156023 -0.05 0.033992422 99615.618
0.069249108 -0.05 0.033359221 99623.651
0.066975029 -0.05 0.032721522 99632.224
0.064737583 -0.05 0.032079266 99641.117
0.062536361 -0.05 0.031432427 99650.276
0.060370989 -0.05 0.030780898 99659.988
0.058241104 -0.05 0.030124576 99670.327
0.056146345 -0.05 0.02946338 99681.254
0.054086377 -0.05 0.028797191 99692.603
0.052060853 -0.05 0.02812596 99704.34
0.05006949 -0.05 0.027449483 99717.121
0.048112005 -0.05 0.026767594 99730.389
0.046188099 -0.05 0.026080213 99744.322
0.044297528 -0.05 0.025387146 99758.831
0.042440063 -0.05 0.024688192 99774.184
0.040615529 -0.05 0.023983068 99790.518
0.038823732 -0.05 0.02327157 99807.688
0.037064485 -0.05 0.022553538 99825.826
0.035337667 -0.05 0.021828681 99845.223
0.033643193 -0.05 0.021096686 99865.765
0.031981003 -0.05 0.020357236 99887.65
0.030351058 -0.05 0.019610013 99910.779
0.028753373 -0.05 0.018854663 99935.401
0.027188022 -0.05 0.018090758 99961.529
0.025655094 -0.05 0.017317921 99989.312
0.024154761 -0.05 0.016535674 100019.14
0.022687259 -0.05 0.015743512 100051.1
0.021252872 -0.05 0.014940937 100085.45
0.019852015 -0.05 0.014127341 100122.4
0.01848512 -0.05 0.013302172 100161.88
0.017152796 -0.05 0.012464735 100204.49
0.01585574 -0.05 0.011614305 100249.97
0.014594742 -0.05 0.010750173 100299.04
0.013370781 -0.05 0.0098715382 100351.88
0.012185025 -0.05 0.0089775964 100408.53
0.011038834 -0.05 0.0080675159 100468.92
0.0099338033 -0.05 0.0071403737 100534.83
0.0088717274 -0.05 0.0061951975 100605.58
0.007854707 -0.05 0.005231226 100681.51
0.0068852667 -0.05 0.0042477327 100762.38
0.0059661844 -0.05 0.0032437533 100848.32
0.0051005471 -0.05 0.0022186956 100938.46
0.0042920909 -0.05 0.0011725588 101032.21
0.0035446991 -0.05 0.00010513628 101128.12
0.0028624473 -0.05 -0.00098321694 101224.09
0.0022500128 -0.05 -0.0020909769 101317.09
0.0017119013 -0.05 -0.0032164735 101402.21
0.0012523415 -0.05 -0.0043570227 101474.47
0.0008750815 -0.05 -0.0055084218 101532.33
0.00058300829 -0.05 -0.0066661414 101569.17
0.00037764372 -0.05 -0.0078248056 101581.07
0.00025880954 -0.05 -0.0089783587 101567.43
0.00022474861 -0.05 -0.010120805 101526.21
0.99619151 -0.05 0.032381946 100105.69
0.98994574 -0.05 0.03301135 100117.72
0.98369925 -0.05 0.033633728 100094.09
0.97745207 -0.05 0.03424911 100079.96
0.97120422 -0.05 0.034857603 100064.92
0.96495572 -0.05 0.035459366 100051.65
0.95870657 -0.05 0.036054382 100039.18
0.9524568 -0.05 0.036642716 100027.56
0.94620641 -0.05 0.037224522 100016.64
0.93995542 -0.05 0.037799887 100006.3
0.93370384 -0.05 0.038368816 99996.545
0.92745169 -0.05 0.038931369 99987.23
0.92119897 -0.05 0.039487623 99978.397
0.9149457 -0.05 0.040037615 99969.934
0.9086919 -0.05 0.040581495 99961.791
0.90243756 -0.05 0.041119263 99953.991
0.8961827 -0.05 0.041650949 99946.485
0.88992735 -0.05 0.042176691 99939.201
0.8836715 -0.05 0.042696502 99932.192
0.87741516 -0.05 0.043210327 99925.434
0.87115833 -0.05 0.043718302 99918.828
0.86490104 -0.05 0.044220497 99912.445
0.85864328 -0.05 0.044716883 99906.242
0.85238507 -0.05 0.045207548 99900.175
0.84612642 -0.05 0.045692554 99894.241
0.83986734 -0.05 0.046171889 99888.475
0.83360783 -0.05 0.046645515 99882.876
0.82734789 -0.05 0.04711361 99877.279
0.82108754 -0.05 0.047576132 99871.898
0.81482678 -0.05 0.048033036 99866.556
0.80856562 -0.05 0.048484402 99861.362
0.80230406 -0.05 0.04893024 99856.197
0.79604211 -0.05 0.049370581 99851.155
0.78977978 -0.05 0.049805381 99846.199
0.78351706 -0.05 0.050234727 99841.268
0.77725398 -0.05 0.050658583 99836.457
0.77099052 -0.05 0.051076918 99831.691
0.76472671 -0.05 0.051489794 99826.987
0.75846253 -0.05 0.051897197 99822.333
0.75219799 -0.05 0.052299115 99817.725
0.74593311 -0.05 0.052695523 99813.176
0.73966788 -0.05 0.053086404 99808.667
0.73340231 -0.05 0.053471744 99804.212
0.7271364 -0.05 0.053851507 99799.821
0.72087015 -0.05 0.054225729 99795.422
0.71460358 -0.05 0.054594437 99791.032
0.70833667 -0.05 0.054957457 99786.769
0.70206944 -0.05 0.055314841 99782.405
0.69580189 -0.05 0.055666554 99778.186
0.68953402 -0.05 0.056012503 99773.921
0.68326583 -0.05 0.056352745 99769.704
0.67699734 -0.05 0.056687181 99765.502
0.67072854 -0.05 0.057015823 99761.266
0.66445943 -0.05 0.057338554 99757.126
0.65819002 -0.05 0.057655273 99752.999
0.6519203 -0.05 0.057966065 99748.815
0.64565029 -0.05 0.058270845 99744.68
0.63937998 -0.05 0.058569444 99740.588
0.63310938 -0.05 0.058861832 99736.499
0.6268385 -0.05 0.059148012 99732.374
0.62056734 -0.05 0.059427844 99728.322
0.61429588 -0.05 0.059701244 99724.238
0.60802415 -0.05 0.05996821 99720.15
0.60175214 -0.05 0.060228596 99716.1
0.59547986 -0.05 0.060482332 99712.02
0.58920731 -0.05 0.060729333 99707.971
0.5829345 -0.05 0.060969509 99703.878
0.57666142 -0.05 0.061202741 99699.835
0.57038808 -0.05 0.061428889 99695.795
0.5641145 -0.05 0.061647918 99691.728
0.55784066 -0.05 0.061859706 99687.689
0.55156657 -0.05 0.062064092 99683.657
0.54529225 -0.05 0.062261004 99679.58
0.5390177 -0.05 0.06245028 99675.566
0.53274291 -0.05 0.062631781 99671.522
0.5264679 -0.05 0.062805436 99667.472
0.52019267 -0.05 0.062971073 99663.427
0.51391724 -0.05 0.06312855 99659.368
0.5076416 -0.05 0.063277699 99655.349
0.50136577 -0.05 0.063418383 99651.3
0.49508975 -0.05 0.063550479 99647.255
0.48881355 -0.05 0.063673789 99643.222
0.48253718 -0.05 0.063788111 99639.227
0.47626065 -0.05 0.063893319 99635.181
0.46998398 -0.05 0.063989276 99631.138
0.46370716 -0.05 0.064075731 99627.124
0.45743022 -0.05 0.064152472 99623.127
0.45115317 -0.05 0.064219335 99619.115
0.44487601 -0.05 0.064276138 99615.103
0.43859877 -0.05 0.064322655 99611.118
0.43232148 -0.05 0.064358647 99607.17
0.42604412 -0.05 0.064383901 99603.205
0.41976672 -0.05 0.064398222 99599.235
0.4134893 -0.05 0.064401361 99595.296
0.4072119 -0.05 0.064393039 99591.382
0.40093452 -0.05 0.064373034 99587.447
0.3946572 -0.05 0.06434106 99583.581
0.38837995 -0.05 0.064296808 99579.768
0.38210279 -0.05 0.064240066 99575.939
0.37582577 -0.05 0.064170594 99572.078
0.36954891 -0.05 0.064087993 99568.333
0.36327223 -0.05 0.063991944 99564.598
0.35699579 -0.05 0.063882207 99560.902
0.3507196 -0.05 0.063758445 99557.221
0.34444371 -0.05 0.063620306 99553.598
0.33816816 -0.05 0.063467401 99550.059
0.331893 -0.05 0.063299403 99546.503
0.32561828 -0.05 0.063115925 99543.006
0.31934405 -0.05 0.062916542 99539.628
0.31307034 -0.05 0.062700866 99536.52
0.30679724 -0.05 0.062468486 99533.178
0.30052479 -0.05 0.062218969 99528.643
