# wallShearStress  FACE_DATA 448
# x y z  wallShearStress_x wallShearStress_y wallShearStress_z
0.29968323 -0.05 -0.057932768 -7.1884999 -9.7792484e-17 -0.295404
0.29405059 -0.05 -0.058160363 -7.269444 -2.060914e-16 -0.28001307
0.28849846 -0.05 -0.058370123 -7.2835547 -2.1531364e-16 -0.26135113
0.28302573 -0.05 -0.058562309 -7.3018366 2.8998167e-16 -0.24243062
0.27763128 -0.05 -0.058737235 -7.3196263 4.6411118e-17 -0.22332442
0.27231404 -0.05 -0.058895244 -7.3382781 -5.744941e-17 -0.20389393
0.26707292 -0.05 -0.059036658 -7.3573964 -1.632404e-16 -0.18425605
0.26190689 -0.05 -0.059161766 -7.377091 -4.0506981e-17 -0.16423599
0.25681491 -0.05 -0.059270904 -7.3973972 -9.2939827e-17 -0.14407752
0.25179594 -0.05 -0.059364361 -7.4185857 -2.9426893e-17 -0.1234549
0.24684897 -0.05 -0.059442365 -7.4399494 2.9741845e-18 -0.10283305
0.24197302 -0.05 -0.059505239 -7.4617657 7.7684109e-17 -0.082539421
0.23716709 -0.05 -0.059553267 -7.4835846 -2.6839698e-17 -0.061539677
0.23243022 -0.05 -0.059586754 -7.5056336 -1.2122386e-17 -0.03802767
0.22776147 -0.05 -0.059605987 -7.5288521 -1.0509393e-17 -0.015328564
0.22315989 -0.05 -0.059611176 -7.5524533 5.7743317e-18 0.0081751908
0.21862455 -0.05 -0.059602628 -7.5769328 1.6473646e-18 0.032354678
0.21415454 -0.05 -0.059580605 -7.6026981 3.8389887e-17 0.055672736
0.20974896 -0.05 -0.059545277 -7.6285598 6.9628821e-17 0.078582748
0.20540693 -0.05 -0.05949695 -7.6550217 8.527098e-17 0.10216256
0.20112757 -0.05 -0.059435876 -7.6822702 5.529325e-17 0.12674333
0.19691002 -0.05 -0.059362323 -7.7104422 -6.3800836e-17 0.15186201
0.19275345 -0.05 -0.059276531 -7.7398667 -1.5188655e-17 0.17764554
0.188657 -0.05 -0.059178623 -7.7694101 7.534547e-17 0.20388318
0.18461985 -0.05 -0.059068886 -7.7994149 1.5515474e-17 0.23046026
0.18064121 -0.05 -0.058947547 -7.8302912 1.9944781e-16 0.2577156
0.17672026 -0.05 -0.058814801 -7.8613236 1.4795274e-16 0.28532466
0.17285621 -0.05 -0.058670892 -7.8934324 2.2592027e-16 0.31361512
0.1690483 -0.05 -0.058516015 -7.9262555 -5.4322515e-17 0.34247519
0.16529574 -0.05 -0.058350339 -7.9597705 -2.8242393e-16 0.37205895
0.16159781 -0.05 -0.05817403 -7.9934388 4.4440721e-16 0.40209341
0.15795374 -0.05 -0.057987344 -8.0281052 -6.6674419e-17 0.43281514
0.15436282 -0.05 -0.057790427 -8.0635822 7.1733235e-17 0.46430731
0.15082432 -0.05 -0.057583452 -8.0996582 3.3897034e-16 0.49640271
0.14733753 -0.05 -0.057366601 -8.1368087 1.0741312e-16 0.52939828
0.14390175 -0.05 -0.057139996 -8.1743835 2.8977477e-16 0.56306261
0.14051631 -0.05 -0.056903826 -8.2127012 -2.6814625e-17 0.59749264
0.13718052 -0.05 -0.056658236 -8.251818 -2.3174628e-16 0.63270412
0.13389371 -0.05 -0.056403424 -8.2920396 1.2900136e-16 0.66875142
0.13065523 -0.05 -0.056139528 -8.3333817 -3.5052086e-18 0.70595611
0.12746444 -0.05 -0.055866604 -8.374379 -1.4130645e-16 0.74379026
0.12432069 -0.05 -0.055584859 -8.4158078 -4.2370651e-16 0.78244367
0.12122335 -0.05 -0.055294444 -8.4580925 1.1636639e-16 0.82237802
0.11817184 -0.05 -0.0549954 -8.5000313 3.4978645e-16 0.86327269
0.11516554 -0.05 -0.054687825 -8.5417307 4.8067133e-17 0.90506086
0.11220386 -0.05 -0.054371878 -8.583614 -2.6656423e-17 0.94795303
0.1092862 -0.05 -0.054047615 -8.6256537 -4.2033707e-16 0.99196134
0.10641201 -0.05 -0.053715153 -8.6680093 6.3959048e-17 1.0368479
0.10358071 -0.05 -0.053374671 -8.7122899 -4.3507127e-16 1.0835372
0.10079174 -0.05 -0.053026134 -8.756846 -1.7128295e-16 1.1315482
0.098044573 -0.05 -0.05266962 -8.8014297 -3.9430378e-17 1.1805501
0.095338666 -0.05 -0.052305291 -8.8477243 1.3980693e-16 1.2315403
0.092673511 -0.05 -0.051933086 -8.8942548 2.2799917e-16 1.2840084
0.09004859 -0.05 -0.051553092 -8.9404135 4.4543018e-16 1.337558
0.087463396 -0.05 -0.051165392 -8.9874539 -3.2438219e-17 1.3928777
0.084917436 -0.05 -0.050770033 -9.0343967 -7.6968787e-18 1.4496866
0.082410225 -0.05 -0.050367078 -9.0823247 -1.1415414e-16 1.5089436
0.079941312 -0.05 -0.049956438 -9.1286768 5.1518564e-16 1.5696485
0.077510236 -0.05 -0.049538123 -9.1735332 -3.3977854e-16 1.6316687
0.075116537 -0.05 -0.049112224 -9.2182128 -3.8590145e-16 1.6956932
0.07275977 -0.05 -0.048678776 -9.2635779 -5.833405e-16 1.7624437
0.070439526 -0.05 -0.048237683 -9.308192 9.869643e-16 1.8312424
0.068155391 -0.05 -0.047788918 -9.3519264 -1.2806641e-16 1.9020136
0.065906957 -0.05 -0.047332495 -9.3959299 3.9025182e-16 1.9755181
0.063693842 -0.05 -0.046868335 -9.4391249 -3.345709e-16 2.051532
0.061515673 -0.05 -0.046396367 -9.4815634 1.036483e-15 2.1301405
0.059372087 -0.05 -0.045916543 -9.5239969 2.4782563e-16 2.2118701
0.057262738 -0.05 -0.045428772 -9.566904 4.3128444e-16 2.2969771
0.055187275 -0.05 -0.044933035 -9.6100475 4.0465029e-16 2.3859583
0.0531454 -0.05 -0.044429153 -9.6519003 -5.2929382e-16 2.4782195
0.051136819 -0.05 -0.043916984 -9.6897266 -5.9103991e-16 2.572737
0.049161223 -0.05 -0.043396476 -9.7266491 -1.7496441e-16 2.6715267
0.047218354 -0.05 -0.042867453 -9.7612977 -2.9319247e-16 2.7746522
0.045307969 -0.05 -0.042329737 -9.7946742 4.6120628e-16 2.8833551
0.043429866 -0.05 -0.04178306 -9.8249332 -7.4632265e-16 2.996804
0.041583836 -0.05 -0.041227237 -9.8517081 -2.8997121e-16 3.1151495
0.039769679 -0.05 -0.040662122 -9.8765593 -4.787629e-16 3.2394936
0.037987251 -0.05 -0.040087437 -9.8993595 8.8542139e-16 3.3698705
0.036236437 -0.05 -0.039502877 -9.9204513 -5.7567324e-16 3.5066425
0.034517151 -0.05 -0.03890813 -9.9421623 -1.7214509e-16 3.6521119
0.032829332 -0.05 -0.038302884 -9.9668499 8.4260354e-16 3.8078582
0.031172957 -0.05 -0.037686786 -9.989262 5.6664835e-16 3.9723339
0.02954807 -0.05 -0.037059402 -10.002825 4.5351469e-16 4.1452996
0.027954722 -0.05 -0.036420348 -10.006381 3.3040324e-16 4.3285655
0.026393047 -0.05 -0.035769134 -9.9911342 1.3279466e-16 4.5199174
0.024863235 -0.05 -0.035105235 -9.9475562 -7.4558487e-16 4.7203515
0.023365528 -0.05 -0.034428133 -9.8789693 -2.4442394e-16 4.9357357
0.021900286 -0.05 -0.033737186 -9.7903293 -3.1623847e-16 5.1688275
0.020467895 -0.05 -0.033031808 -9.6867167 -8.0032692e-17 5.4231933
0.0190689 -0.05 -0.032311253 -9.569043 -6.6856518e-16 5.703094
0.017703934 -0.05 -0.031574739 -9.4222115 3.050062e-16 6.0086374
0.016373722 -0.05 -0.030821493 -9.2475 1.2388398e-15 6.3481862
0.015079175 -0.05 -0.030050633 -9.0373652 8.9155904e-16 6.7232142
0.013821385 -0.05 -0.029261258 -8.7939853 -2.0502533e-16 7.1398557
0.012601636 -0.05 -0.028452424 -8.526843 -4.6618323e-16 7.5889614
0.011421439 -0.05 -0.027623074 -8.2756644 7.8839276e-16 8.0471702
0.0102825 -0.05 -0.026772086 -8.1061891 -3.7255723e-16 8.5152946
0.0091868458 -0.05 -0.025898522 -7.9601876 1.516925e-16 8.9828191
0.0081369301 -0.05 -0.025001444 -7.7645401 2.4366552e-16 9.4064236
0.007135438 -0.05 -0.024079652 -7.4667895 -2.4382316e-16 9.7513358
0.0061853948 -0.05 -0.023132293 -7.0366803 1.2988964e-16 9.9963697
0.0052905229 -0.05 -0.022159046 -6.483809 -3.4670047e-16 10.103347
0.0044546738 -0.05 -0.021159375 -5.8203406 -2.3233147e-17 10.050341
0.0036819384 -0.05 -0.020133286 -5.0757232 -4.5905633e-16 9.8248725
0.002977107 -0.05 -0.019081896 -4.2798807 -1.6323831e-16 9.4136958
0.002344812 -0.05 -0.018006484 -3.4639343 -1.2851078e-16 8.7986411
0.0017894954 -0.05 -0.016909365 -2.6634442 2.9565841e-16 7.9849572
0.0013152508 -0.05 -0.015794404 -1.9162413 2.1841539e-16 7.0017723
0.00092534157 -0.05 -0.014665869 -1.2613625 -2.9471065e-16 5.8932712
0.00062174331 -0.05 -0.013528984 -0.76883617 -2.3659476e-16 4.7176784
0.00040479577 -0.05 -0.012389801 -0.43713506 -3.0184402e-17 3.522351
0.00027326038 -0.05 -0.01125444 -0.23955777 3.6495768e-17 2.3676564
0.99622996 -0.05 0.031483417 -0.26391729 9.0629218e-18 -0.10439597
0.99006079 -0.05 0.03032274 -0.66029574 9.5680032e-16 -0.12102891
0.98389031 -0.05 0.029169 -0.65145213 7.1344665e-16 -0.12046414
0.97771854 -0.05 0.028022173 -0.75628292 1.5533283e-15 -0.13870797
0.97154552 -0.05 0.026882152 -0.82499317 -4.8746167e-16 -0.15010818
0.96537128 -0.05 0.025748781 -0.91792618 -5.8687824e-16 -0.16599654
0.9591958 -0.05 0.024622076 -1.00817 4.0750549e-16 -0.18120905
0.95301913 -0.05 0.023501977 -1.1061842 -3.297774e-16 -0.19770016
0.9468413 -0.05 0.022388327 -1.2082794 -8.8440753e-17 -0.21473398
0.94066231 -0.05 0.021281046 -1.3162727 -6.6189763e-17 -0.23261338
0.9344822 -0.05 0.020180126 -1.4296773 -7.0877611e-16 -0.2512408
0.92830096 -0.05 0.019085509 -1.5491189 9.228889e-16 -0.27073576
0.92211861 -0.05 0.017997119 -1.6746563 1.1888794e-16 -0.29108145
0.91593519 -0.05 0.016914923 -1.8063873 6.1408876e-16 -0.31229828
0.90975071 -0.05 0.015838769 -1.9442048 -2.9170266e-16 -0.33436158
0.90356518 -0.05 0.014768661 -2.0879013 -3.5447926e-16 -0.35721477
0.89737861 -0.05 0.013704568 -2.2374356 -1.6138568e-16 -0.38087581
0.89119104 -0.05 0.012646354 -2.3925649 -2.2708002e-16 -0.40520625
0.88500247 -0.05 0.011594007 -2.5520567 5.1436313e-17 -0.43002743
0.87881289 -0.05 0.010547583 -2.7154923 5.3369623e-16 -0.45526787
0.87262233 -0.05 0.0095069461 -2.8822688 -6.9009897e-16 -0.48086735
0.86643082 -0.05 0.0084720281 -3.0518069 -8.1390513e-17 -0.50657676
0.86023835 -0.05 0.0074428577 -3.2222604 2.7055471e-16 -0.5322264
0.85404495 -0.05 0.0064193494 -3.3933132 -2.0139109e-15 -0.55770981
0.84785061 -0.05 0.0054014411 -3.5642431 1.0377706e-15 -0.58289268
0.84165535 -0.05 0.0043891469 -3.7344004 2.492898e-16 -0.60754913
0.83545918 -0.05 0.0033825029 -3.9014771 1.3655448e-16 -0.63148181
0.82926213 -0.05 0.0023813348 -4.0657699 1.3522452e-15 -0.65470303
0.82306417 -0.05 0.0013856829 -4.2262506 -1.5856648e-15 -0.67692492
0.81686534 -0.05 0.00039559359 -4.382669 -7.4671407e-16 -0.69823972
0.81066562 -0.05 -0.00058901212 -4.5340615 -9.6561187e-16 -0.7184098
0.80446504 -0.05 -0.0015681436 -4.6802502 -1.972026e-15 -0.73751722
0.7982636 -0.05 -0.002541832 -4.821019 -2.7843127e-17 -0.75547505
0.79206131 -0.05 -0.0035100322 -4.9563071 -1.3095947e-15 -0.77228258
0.78585817 -0.05 -0.0044728302 -5.0857531 1.0083631e-16 -0.78796637
0.77965419 -0.05 -0.0054301908 -5.2094807 8.1530574e-16 -0.80242581
0.77344937 -0.05 -0.0063820825 -5.3271919 1.5995188e-16 -0.81580224
0.76724373 -0.05 -0.0073285657 -5.4393598 -1.5269542e-16 -0.82808035
0.76103726 -0.05 -0.0082696262 -5.5460576 -1.0462165e-15 -0.83930983
0.75482996 -0.05 -0.0092052533 -5.6477859 1.9658446e-15 -0.84956627
0.74862184 -0.05 -0.010135419 -5.7444951 2.831111e-16 -0.85886393
0.74241291 -0.05 -0.011060109 -5.8361126 3.9484942e-16 -0.86722912
0.73620316 -0.05 -0.011979306 -5.9224599 1.6784944e-15 -0.87463628
0.7299926 -0.05 -0.012892977 -6.0034226 1.9752309e-16 -0.88110967
0.72378124 -0.05 -0.013801153 -6.0794472 -5.7969173e-16 -0.88675988
0.71756907 -0.05 -0.014703866 -6.1510923 -1.0853656e-16 -0.8915555
0.71135609 -0.05 -0.01560094 -6.2182041 8.1398411e-16 -0.89545757
0.7051423 -0.05 -0.016492425 -6.2812526 8.9925088e-16 -0.89879148
0.69892771 -0.05 -0.017378288 -6.3403524 1.0200307e-16 -0.90121369
0.6927123 -0.05 -0.018258435 -6.3951509 -4.2957765e-16 -0.90307112
0.6864961 -0.05 -0.019132923 -6.4464983 -3.3972066e-16 -0.904226
0.6802791 -0.05 -0.020001653 -6.494147 7.6522799e-16 -0.90475099
0.67406129 -0.05 -0.020864636 -6.5387363 -4.3126663e-16 -0.90471683
0.66784266 -0.05 -0.021721755 -6.5801861 1.3756563e-15 -0.90401678
0.66162323 -0.05 -0.022572911 -6.6186535 4.8231792e-16 -0.9028825
0.65540298 -0.05 -0.023418188 -6.6549407 -6.7101635e-16 -0.90135009
0.64918193 -0.05 -0.024257498 -6.6889569 -3.4610181e-16 -0.899239
0.64296007 -0.05 -0.025090678 -6.7202444 7.5482958e-16 -0.89666463
0.63673736 -0.05 -0.025917693 -6.7493458 7.232376e-16 -0.89371077
0.63051386 -0.05 -0.026738546 -6.7765735 -1.1716864e-15 -0.89036738
0.62428952 -0.05 -0.0275531 -6.8016813 -1.2548804e-15 -0.88654033
0.61806435 -0.05 -0.02836127 -6.8246407 -1.7992425e-15 -0.88241393
0.61183835 -0.05 -0.029163052 -6.8461699 1.4250937e-15 -0.87792807
0.60561151 -0.05 -0.029958302 -6.8659627 -8.8078805e-16 -0.8730547
0.59938384 -0.05 -0.03074695 -6.8842026 -3.9280866e-16 -0.86790607
0.59315532 -0.05 -0.031528911 -6.9012128 -5.4289074e-16 -0.86242078
0.58692596 -0.05 -0.032304093 -6.9171863 -8.9701111e-16 -0.85670781
0.58069573 -0.05 -0.033072381 -6.9320241 -2.6873013e-16 -0.85063032
0.57446466 -0.05 -0.033833633 -6.9454618 -6.8689599e-17 -0.8443008
0.56823272 -0.05 -0.034587812 -6.9579437 -4.0846721e-16 -0.83774659
0.56199992 -0.05 -0.035334798 -6.9695605 5.8976235e-16 -0.8308443
0.55576623 -0.05 -0.03607443 -6.9800362 -2.1532793e-16 -0.8236632
0.54953166 -0.05 -0.036806636 -6.9896732 3.716019e-16 -0.81624971
0.54329622 -0.05 -0.037531254 -6.9983631 -1.432986e-15 -0.8084768
0.53705987 -0.05 -0.038248145 -7.0061029 -8.3513509e-16 -0.80052957
0.53082264 -0.05 -0.038957237 -7.0133079 9.8681104e-16 -0.7923231
0.52458451 -0.05 -0.039658359 -7.019906 7.19493e-16 -0.78384564
0.51834547 -0.05 -0.04035137 -7.026036 6.7960139e-16 -0.77514966
0.51210551 -0.05 -0.0410361 -7.0317323 -1.0277535e-15 -0.76618179
0.50586464 -0.05 -0.041712414 -7.0369189 4.3129364e-16 -0.75704388
0.49962285 -0.05 -0.042380186 -7.0418776 4.241263e-16 -0.74764011
0.49338014 -0.05 -0.04303922 -7.0464109 -1.7378829e-16 -0.73797673
0.48713648 -0.05 -0.043689313 -7.0504902 -5.9527724e-17 -0.72805496
0.48089188 -0.05 -0.044330338 -7.0542285 1.4068701e-15 -0.71798285
0.47464635 -0.05 -0.04496216 -7.0579401 5.5693582e-16 -0.70762232
0.46839986 -0.05 -0.045584526 -7.0612404 -3.5598465e-16 -0.69695716
0.46215243 -0.05 -0.046197224 -7.0641578 7.1714854e-17 -0.6860496
0.45590404 -0.05 -0.04680009 -7.0668354 1.2447439e-16 -0.67491982
0.44965468 -0.05 -0.047392941 -7.0694459 4.4772828e-16 -0.66352783
0.44340437 -0.05 -0.047975551 -7.0719836 -8.1937731e-16 -0.65185898
0.43715308 -0.05 -0.048547679 -7.0745674 -5.0371375e-16 -0.6399279
0.43090083 -0.05 -0.049109115 -7.0772511 1.7877957e-16 -0.62777678
0.4246476 -0.05 -0.049659661 -7.0802803 7.1404611e-16 -0.61538645
0.41839341 -0.05 -0.050199066 -7.0836576 4.7840738e-17 -0.60270832
0.41213824 -0.05 -0.050727052 -7.0874125 4.6642119e-16 -0.58977091
0.40588211 -0.05 -0.051243394 -7.091911 -4.6690634e-17 -0.57661764
0.39962501 -0.05 -0.051747808 -7.0972444 2.1543542e-16 -0.56314074
0.39336692 -0.05 -0.052239983 -7.1031668 -7.040879e-16 -0.54943841
0.38710787 -0.05 -0.052719704 -7.1101604 2.8652794e-16 -0.5355412
0.38084785 -0.05 -0.053186729 -7.1185102 4.7907033e-16 -0.52133959
0.37458688 -0.05 -0.053640662 -7.1276229 -1.1301696e-16 -0.50669859
0.36832495 -0.05 -0.054081178 -7.1372304 5.928372e-17 -0.49181793
0.36206208 -0.05 -0.054508039 -7.1478148 -4.8111524e-16 -0.47656208
0.35579826 -0.05 -0.054920903 -7.1589873 3.4745014e-16 -0.46090355
0.34953352 -0.05 -0.055319416 -7.1705526 4.9255819e-16 -0.44478598
0.34326785 -0.05 -0.055703189 -7.1823019 -9.6242568e-17 -0.42820364
0.33700127 -0.05 -0.056071891 -7.1943949 1.2791625e-16 -0.41121108
0.33073382 -0.05 -0.056425132 -7.2066016 4.6709659e-16 -0.39365115
0.32446548 -0.05 -0.056762485 -7.2184441 8.8056097e-17 -0.37563412
0.31819629 -0.05 -0.057083559 -7.2308263 -8.1081689e-17 -0.35714633
0.31192627 -0.05 -0.057387938 -7.2432888 4.4784122e-16 -0.33803982
0.30565544 -0.05 -0.057675187 -7.1845621 2.2716129e-16 -0.31345798
0.29455242 -0.05 0.061965404 -7.1315206 6.3429178e-18 -0.32208527
0.28892092 -0.05 0.061710972 -7.1385091 -4.1293569e-17 -0.33980486
0.28337117 -0.05 0.061445649 -7.228502 -3.6583806e-16 -0.36360206
0.27790203 -0.05 0.061169597 -7.3095095 -5.5797158e-17 -0.38742018
0.27251235 -0.05 0.060883037 -7.3922552 2.9710862e-16 -0.41187589
0.26720106 -0.05 0.060586218 -7.4748085 8.3436555e-17 -0.4370348
0.26196703 -0.05 0.060279367 -7.5575473 -9.9151174e-17 -0.46280855
0.2568092 -0.05 0.059962686 -7.6402714 1.743625e-16 -0.48932567
0.2517265 -0.05 0.059636417 -7.7227629 -4.3147115e-17 -0.51638516
0.24671789 -0.05 0.059300763 -7.8051155 8.6439973e-17 -0.54429992
0.24178234 -0.05 0.058955863 -7.8864592 2.3077161e-16 -0.57276774
0.23691885 -0.05 0.058601955 -7.9673288 6.7892633e-17 -0.60192671
0.23212639 -0.05 0.058239239 -8.0476865 -7.7337052e-17 -0.63175616
0.22740398 -0.05 0.057867935 -8.128117 4.5341257e-16 -0.66230663
0.22275064 -0.05 0.057488245 -8.2083176 -2.4275657e-16 -0.69361053
0.21816544 -0.05 0.057100303 -8.2877209 -2.6139397e-16 -0.72565102
0.21364741 -0.05 0.056704333 -8.3668547 -3.1302401e-16 -0.75831716
0.20919561 -0.05 0.056300518 -8.4461732 -2.3174259e-16 -0.79198728
0.20480916 -0.05 0.055888953 -8.5247937 -2.4619781e-16 -0.82632058
0.20048714 -0.05 0.055469864 -8.6031266 -8.6098387e-17 -0.86134474
0.19622865 -0.05 0.055043429 -8.6812806 -8.2293881e-19 -0.89720789
0.19203281 -0.05 0.05460984 -8.75948 -1.4693001e-16 -0.93380769
0.18789875 -0.05 0.054169267 -8.8376538 -4.327127e-17 -0.97143497
0.18382563 -0.05 0.053721758 -8.9145508 -6.2608986e-16 -1.0097803
0.17981263 -0.05 0.053267529 -8.990603 4.0508341e-16 -1.0487321
0.1758589 -0.05 0.052806739 -9.065893 2.4854314e-16 -1.0886648
0.17196362 -0.05 0.052339513 -9.1397483 -3.1372056e-16 -1.1291468
0.16812599 -0.05 0.051866025 -9.2126718 1.9444033e-16 -1.1705432
0.16434523 -0.05 0.051386405 -9.2847755 1.2110255e-16 -1.2127507
0.16062055 -0.05 0.050900755 -9.3561142 5.0280659e-16 -1.2559531
0.1569512 -0.05 0.050409177 -9.4262624 3.1299636e-16 -1.2998229
0.1533364 -0.05 0.049911862 -9.4962858 6.3204814e-16 -1.3446951
0.14977543 -0.05 0.049408893 -9.5659156 1.1617497e-16 -1.3906691
0.14626754 -0.05 0.048900381 -9.6349994 -1.447532e-16 -1.4375058
0.14281203 -0.05 0.048386447 -9.7035662 7.6995757e-16 -1.4854659
0.13940817 -0.05 0.047867153 -9.7708794 1.9671053e-16 -1.5342469
0.13605528 -0.05 0.047342628 -9.8372341 2.8142147e-16 -1.5839418
0.13275266 -0.05 0.04681296 -9.9021305 -4.3242361e-16 -1.6344454
0.12949964 -0.05 0.046278288 -9.9655674 4.4447635e-17 -1.6857561
0.12629553 -0.05 0.045738694 -10.027222 -7.7627836e-17 -1.7382681
0.12313973 -0.05 0.045194179 -10.08623 -1.4276671e-16 -1.7914174
0.12003155 -0.05 0.044644896 -10.143612 -3.4271423e-16 -1.8454094
0.11697035 -0.05 0.044090938 -10.199258 4.2467736e-16 -1.9006703
0.11395553 -0.05 0.043532296 -10.252642 4.5646333e-17 -1.9568803
0.1109865 -0.05 0.042969019 -10.304672 8.0158566e-16 -2.0140807
0.10806264 -0.05 0.042401211 -10.355756 4.065535e-16 -2.0724565
0.10518336 -0.05 0.041828878 -10.404543 6.1241016e-16 -2.1318404
0.10234807 -0.05 0.041252089 -10.45129 -3.396584e-17 -2.1919072
0.099556197 -0.05 0.040670975 -10.497343 2.8486503e-16 -2.253754
0.096807203 -0.05 0.040085452 -10.541192 1.9531748e-16 -2.3169168
0.094100538 -0.05 0.039495551 -10.582782 -5.0284613e-16 -2.3808286
0.091435648 -0.05 0.038901389 -10.622781 -8.133653e-17 -2.4463404
0.088812033 -0.05 0.038302862 -10.659244 -4.2161557e-16 -2.5128806
0.086229172 -0.05 0.037700009 -10.692454 4.1627987e-16 -2.5800782
0.083686549 -0.05 0.037092873 -10.723077 -1.1671702e-16 -2.6486762
0.081183673 -0.05 0.03648146 -10.750118 3.9184563e-16 -2.7180757
0.078720052 -0.05 0.035865787 -10.77414 -7.2268361e-16 -2.7893337
0.076295245 -0.05 0.03524573 -10.793232 7.8439983e-17 -2.861651
0.073908794 -0.05 0.034621258 -10.80677 2.4598977e-16 -2.9345216
0.07156023 -0.05 0.033992422 -10.815054 -3.1748539e-16 -3.0082397
0.069249108 -0.05 0.033359221 -10.818196 1.4937784e-16 -3.0833497
0.066975029 -0.05 0.032721522 -10.815621 -3.4747666e-16 -3.1593604
0.064737583 -0.05 0.032079266 -10.80871 -3.0513995e-16 -3.2362011
0.062536361 -0.05 0.031432427 -10.799398 -4.5323967e-16 -3.314975
0.060370989 -0.05 0.030780898 -10.787264 1.4174802e-16 -3.3955687
0.058241104 -0.05 0.030124576 -10.772061 2.4211018e-16 -3.4780944
0.056146345 -0.05 0.02946338 -10.756247 4.6508156e-16 -3.5634216
0.054086377 -0.05 0.028797191 -10.736804 7.8551474e-16 -3.6507948
0.052060853 -0.05 0.02812596 -10.712494 -1.6145927e-16 -3.7405444
0.05006949 -0.05 0.027449483 -10.678585 -4.2546043e-16 -3.8310997
0.048112005 -0.05 0.026767594 -10.632425 1.1640198e-15 -3.9219008
0.046188099 -0.05 0.026080213 -10.575088 1.0132152e-15 -4.0151526
0.044297528 -0.05 0.025387146 -10.508323 1.0157447e-15 -4.1122875
0.042440063 -0.05 0.024688192 -10.441003 -3.9613287e-16 -4.2168846
0.040615529 -0.05 0.023983068 -10.375351 5.2759432e-16 -4.3288734
0.038823732 -0.05 0.02327157 -10.315202 2.9170364e-16 -4.449186
0.037064485 -0.05 0.022553538 -10.26549 -8.3554832e-16 -4.5794943
0.035337667 -0.05 0.021828681 -10.211978 5.1867812e-16 -4.7161655
0.033643193 -0.05 0.021096686 -10.151026 -4.5311956e-16 -4.8593685
0.031981003 -0.05 0.020357236 -10.079207 2.1406378e-16 -5.0086258
0.030351058 -0.05 0.019610013 -9.9912504 -2.7740593e-16 -5.163556
0.028753373 -0.05 0.018854663 -9.8846159 3.1047346e-16 -5.3243789
0.027188022 -0.05 0.018090758 -9.7590986 2.2165427e-16 -5.49081
0.025655094 -0.05 0.017317921 -9.62127 -9.334609e-16 -5.6653767
0.024154761 -0.05 0.016535674 -9.4779835 -1.8806128e-16 -5.8481089
0.022687259 -0.05 0.015743512 -9.3363375 -5.2289757e-16 -6.0385613
0.021252872 -0.05 0.014940937 -9.2000427 4.9153351e-16 -6.2363721
0.019852015 -0.05 0.014127341 -9.0620617 3.8491225e-16 -6.4373641
0.01848512 -0.05 0.013302172 -8.9107383 -6.4346638e-17 -6.6370518
0.017152796 -0.05 0.012464735 -8.7362551 1.1972981e-16 -6.8283623
0.01585574 -0.05 0.011614305 -8.5295395 -8.3607861e-16 -7.0049586
0.014594742 -0.05 0.010750173 -8.2874283 6.7989204e-16 -7.160467
0.013370781 -0.05 0.0098715382 -8.004469 7.3507551e-16 -7.2864711
0.012185025 -0.05 0.0089775964 -7.6787853 6.2357091e-18 -7.378083
0.011038834 -0.05 0.0080675159 -7.307025 -1.9049501e-16 -7.4353252
0.0099338033 -0.05 0.0071403737 -6.8846628 -6.1627905e-16 -7.4482327
0.0088717274 -0.05 0.0061951975 -6.4094697 -6.7771603e-16 -7.3995634
0.007854707 -0.05 0.005231226 -5.8869154 -8.1996856e-16 -7.2841905
0.0068852667 -0.05 0.0042477327 -5.3202347 4.2130874e-16 -7.0917035
0.0059661844 -0.05 0.0032437533 -4.7181651 3.7086967e-16 -6.8102495
0.0051005471 -0.05 0.0022186956 -4.0903242 -3.4397269e-16 -6.4326564
0.0042920909 -0.05 0.0011725588 -3.4506995 4.7384628e-16 -5.9531589
0.0035446991 -0.05 0.00010513628 -2.8155599 -1.7524499e-17 -5.3682279
0.0028624473 -0.05 -0.00098321694 -2.2040023 1.2928398e-16 -4.6808259
0.0022500128 -0.05 -0.0020909769 -1.6358839 4.2870612e-17 -3.900661
0.0017119013 -0.05 -0.0032164735 -1.1303164 -6.7157518e-16 -3.0406726
0.0012523415 -0.05 -0.0043570227 -0.7025113 1.2986281e-16 -2.1186402
0.0008750815 -0.05 -0.0055084218 -0.40799618 -2.0848644e-17 -1.2115434
0.00058300829 -0.05 -0.0066661414 -0.23354576 -4.5900795e-17 -0.55939644
0.00037764372 -0.05 -0.0078248056 -0.15292563 -1.9939678e-16 0.027664321
0.00025880954 -0.05 -0.0089783587 -0.11383381 -2.4727187e-17 0.62876696
0.00022474861 -0.05 -0.010120805 -0.14750047 -2.5033694e-18 1.3477315
0.99619151 -0.05 0.032381946 -1.0366698 -6.9730595e-16 0.16276897
0.98994574 -0.05 0.03301135 -1.8953258 6.3348751e-16 0.17595634
0.98369925 -0.05 0.033633728 -1.8258438 -8.5092678e-17 0.18106196
0.97745207 -0.05 0.03424911 -1.9341789 -1.4395886e-16 0.18879869
0.97120422 -0.05 0.034857603 -1.9870724 -2.311233e-16 0.19214538
0.96495572 -0.05 0.035459366 -2.0473152 3.0642976e-16 0.19570825
0.95870657 -0.05 0.036054382 -2.099307 -5.7904901e-16 0.19839761
0.9524568 -0.05 0.036642716 -2.1485332 4.7247439e-16 0.20077158
0.94620641 -0.05 0.037224522 -2.1945969 -5.5480874e-16 0.20275948
0.93995542 -0.05 0.037799887 -2.2383364 7.7177173e-17 0.20446314
0.93370384 -0.05 0.038368816 -2.280058 5.0166669e-16 0.20587855
0.92745169 -0.05 0.038931369 -2.3198447 -4.2207176e-16 0.20709887
0.92119897 -0.05 0.039487623 -2.3582259 -3.0355329e-16 0.20809729
0.9149457 -0.05 0.040037615 -2.3950277 -6.5414939e-16 0.20894828
0.9086919 -0.05 0.040581495 -2.4309185 4.5877946e-17 0.20966541
0.90243756 -0.05 0.041119263 -2.4658686 5.0027128e-16 0.21022844
0.8961827 -0.05 0.041650949 -2.4996842 5.7341249e-16 0.21067506
0.88992735 -0.05 0.042176691 -2.5329606 -5.0155578e-16 0.21103511
0.8836715 -0.05 0.042696502 -2.5656703 6.7914037e-16 0.21125755
0.87741516 -0.05 0.043210327 -2.5975809 2.4998598e-16 0.21138971
0.87115833 -0.05 0.043718302 -2.6289264 -6.8930926e-18 0.21147642
0.86490104 -0.05 0.044220497 -2.6600714 2.5541939e-16 0.21145539
0.85864328 -0.05 0.044716883 -2.6905799 -4.5186246e-16 0.21137503
0.85238507 -0.05 0.045207548 -2.7208786 4.0381752e-16 0.21125284
0.84612642 -0.05 0.045692554 -2.7510138 7.0985717e-16 0.21106272
0.83986734 -0.05 0.046171889 -2.7809314 -1.0552452e-16 0.21078649
0.83360783 -0.05 0.046645515 -2.8103494 4.4850632e-17 0.21046223
0.82734789 -0.05 0.04711361 -2.839825 9.8351523e-17 0.21014909
0.82108754 -0.05 0.047576132 -2.8694489 -2.4339303e-16 0.20969472
0.81482678 -0.05 0.048033036 -2.8986033 -4.0577421e-16 0.20924847
0.80856562 -0.05 0.048484402 -2.9279228 2.3558281e-16 0.2087263
0.80230406 -0.05 0.04893024 -2.9571478 -7.9096565e-17 0.20819939
0.79604211 -0.05 0.049370581 -2.9865314 -8.5908526e-17 0.20759004
0.78977978 -0.05 0.049805381 -3.015743 -4.283833e-16 0.20694791
0.78351706 -0.05 0.050234727 -3.0451383 1.7952619e-16 0.20628856
0.77725398 -0.05 0.050658583 -3.0747403 2.1552751e-17 0.20553812
0.77099052 -0.05 0.051076918 -3.1041849 -2.2200852e-16 0.20477573
0.76472671 -0.05 0.051489794 -3.1338983 3.8621407e-16 0.20396715
0.75846253 -0.05 0.051897197 -3.1637543 -1.6178751e-16 0.2031154
0.75219799 -0.05 0.052299115 -3.1938538 -4.7791911e-16 0.20221757
0.74593311 -0.05 0.052695523 -3.2241066 2.3392293e-16 0.20126156
0.73966788 -0.05 0.053086404 -3.2545408 -5.1825302e-16 0.20025994
0.73340231 -0.05 0.053471744 -3.2851563 -7.001105e-17 0.19920201
0.7271364 -0.05 0.053851507 -3.3158662 1.7698895e-16 0.19809523
0.72087015 -0.05 0.054225729 -3.3468394 5.9338334e-16 0.19697725
0.71460358 -0.05 0.054594437 -3.3784136 5.0230122e-16 0.19578251
0.70833667 -0.05 0.054957457 -3.4101082 -3.4377636e-16 0.19447735
0.70206944 -0.05 0.055314841 -3.4420322 -2.1367403e-17 0.19322027
0.69580189 -0.05 0.055666554 -3.4746141 2.0057608e-16 0.19179224
0.68953402 -0.05 0.056012503 -3.5071276 9.8996304e-17 0.19038999
0.68326583 -0.05 0.056352745 -3.5403518 2.8801742e-16 0.18889335
0.67699734 -0.05 0.056687181 -3.5738655 -4.493731e-16 0.18734263
0.67072854 -0.05 0.057015823 -3.6080041 1.2596925e-16 0.1857418
0.66445943 -0.05 0.057338554 -3.6426105 -1.2056111e-16 0.18399831
0.65819002 -0.05 0.057655273 -3.6772595 2.0833587e-16 0.18223524
0.6519203 -0.05 0.057966065 -3.7126894 1.4152348e-16 0.18043632
0.64565029 -0.05 0.058270845 -3.7488597 -1.130068e-16 0.17848702
0.63937998 -0.05 0.058569444 -3.785222 1.9590069e-16 0.17644783
0.63310938 -0.05 0.058861832 -3.8219703 1.2538768e-16 0.17435105
0.6268385 -0.05 0.059148012 -3.8594326 -6.1065819e-17 0.17216966
0.62056734 -0.05 0.059427844 -3.8974301 1.0856454e-16 0.16983198
0.61429588 -0.05 0.059701244 -3.935762 -4.2191442e-17 0.16745194
0.60802415 -0.05 0.05996821 -3.9749428 1.5819549e-16 0.16495258
0.60175214 -0.05 0.060228596 -4.0146923 3.349598e-16 0.16231578
0.59547986 -0.05 0.060482332 -4.0550169 -1.7365526e-16 0.15959865
0.58920731 -0.05 0.060729333 -4.0961124 3.6351458e-17 0.15672692
0.5829345 -0.05 0.060969509 -4.1378738 1.8104098e-16 0.15376
0.57666142 -0.05 0.061202741 -4.1804284 -1.3109065e-16 0.15060371
0.57038808 -0.05 0.061428889 -4.2234143 -8.2740405e-17 0.14733907
0.5641145 -0.05 0.061647918 -4.2672581 -1.0275132e-17 0.14394938
0.55784066 -0.05 0.061859706 -4.3119131 1.9908118e-19 0.14036617
0.55156657 -0.05 0.062064092 -4.3571822 1.790831e-16 0.13662795
0.54529225 -0.05 0.062261004 -4.4033413 7.2118595e-17 0.13274056
0.5390177 -0.05 0.06245028 -4.4502952 -2.1904974e-17 0.12861755
0.53274291 -0.05 0.062631781 -4.4977602 -3.5647441e-16 0.12436938
0.5264679 -0.05 0.062805436 -4.5462116 1.535406e-16 0.119907
0.52019267 -0.05 0.062971073 -4.5954994 -1.0370819e-16 0.11522224
0.51391724 -0.05 0.06312855 -4.645712 3.3706399e-17 0.11033185
0.5076416 -0.05 0.063277699 -4.6967909 -1.5823344e-17 0.10519427
0.50136577 -0.05 0.063418383 -4.7486586 7.4584493e-17 0.099869011
0.49508975 -0.05 0.063550479 -4.8015722 -7.4007901e-17 0.094271252
0.48881355 -0.05 0.063673789 -4.8553177 -6.8289936e-17 0.088395681
0.48253718 -0.05 0.063788111 -4.9098283 -4.7976145e-17 0.082239639
0.47626065 -0.05 0.063893319 -4.9653364 2.8617566e-17 0.075864512
0.46998398 -0.05 0.063989276 -5.0221399 1.8183183e-17 0.069154374
0.46370716 -0.05 0.064075731 -5.079829 7.3225919e-17 0.062103328
0.45743022 -0.05 0.064152472 -5.1383005 -6.9122925e-17 0.054742043
0.45115317 -0.05 0.064219335 -5.1977581 -6.301227e-17 0.047070073
0.44487601 -0.05 0.064276138 -5.2583439 -4.2548928e-17 0.039080295
0.43859877 -0.05 0.064322655 -5.3199973 -5.8006886e-17 0.030901829
0.43232148 -0.05 0.064358647 -5.3825451 5.3442759e-18 0.022274723
0.42604412 -0.05 0.064383901 -5.4461043 6.9575552e-18 0.012602594
0.41976672 -0.05 0.064398222 -5.5109999 -4.9404044e-18 0.0028945495
0.4134893 -0.05 0.064401361 -5.5769931 1.6388799e-18 -0.0074345232
0.4072119 -0.05 0.064393039 -5.6439768 -7.4913474e-20 -0.018452416
0.40093452 -0.05 0.064373034 -5.7122996 -2.8913906e-18 -0.02931474
0.3946572 -0.05 0.06434106 -5.7818346 -2.4787165e-17 -0.040689503
0.38837995 -0.05 0.064296808 -5.8521092 1.6746705e-17 -0.052573915
0.38210279 -0.05 0.064240066 -5.923376 -1.6824523e-17 -0.065207273
0.37582577 -0.05 0.064170594 -5.9961068 6.4350819e-17 -0.078457989
0.36954891 -0.05 0.064087993 -6.0700614 -1.0928109e-16 -0.092426015
0.36327223 -0.05 0.063991944 -6.1449203 -4.6225731e-17 -0.10691918
0.35699579 -0.05 0.063882207 -6.2210603 7.2457925e-18 -0.12209558
0.3507196 -0.05 0.063758445 -6.2983876 2.4186703e-17 -0.13798195
0.34444371 -0.05 0.063620306 -6.3769488 -3.800738e-17 -0.15463758
0.33816816 -0.05 0.063467401 -6.4565089 2.3479544e-18 -0.17206313
0.331893 -0.05 0.063299403 -6.537323 2.1781405e-16 -0.19025236
0.32561828 -0.05 0.063115925 -6.6195927 -1.45586e-16 -0.20936782
0.31934405 -0.05 0.062916542 -6.702398 8.5080217e-17 -0.22930457
0.31307034 -0.05 0.062700866 -6.7850411 7.6842945e-17 -0.25022086
0.30679724 -0.05 0.062468486 -6.8720704 -3.9508669e-17 -0.27267549
0.30052479 -0.05 0.062218969 -7.0280218 1.8065942e-17 -0.29897376
