# yPlus  FACE_DATA 448
# x y z  yPlus
0.29968323 -0.05 -0.057932768 22.925762
0.29405059 -0.05 -0.058160363 23.05423
0.28849846 -0.05 -0.058370123 22.968572
0.28302573 -0.05 -0.058562309 22.890015
0.27763128 -0.05 -0.058737235 22.813118
0.27231404 -0.05 -0.058895244 22.73993
0.26707292 -0.05 -0.059036658 22.669796
0.26190689 -0.05 -0.059161766 22.602877
0.25681491 -0.05 -0.059270904 22.53911
0.25179594 -0.05 -0.059364361 22.478967
0.24684897 -0.05 -0.059442365 22.421341
0.24197302 -0.05 -0.059505239 22.366374
0.23716709 -0.05 -0.059553267 22.31371
0.23243022 -0.05 -0.059586754 22.263657
0.22776147 -0.05 -0.059605987 22.217025
0.22315989 -0.05 -0.059611176 22.172974
0.21862455 -0.05 -0.059602628 22.131971
0.21415454 -0.05 -0.059580605 22.094652
0.20974896 -0.05 -0.059545277 22.059262
0.20540693 -0.05 -0.05949695 22.026599
0.20112757 -0.05 -0.059435876 21.996954
0.19691002 -0.05 -0.059362323 21.97024
0.19275345 -0.05 -0.059276531 21.94707
0.188657 -0.05 -0.059178623 21.925795
0.18461985 -0.05 -0.059068886 21.906556
0.18064121 -0.05 -0.058947547 21.890287
0.17672026 -0.05 -0.058814801 21.875506
0.17285621 -0.05 -0.058670892 21.863801
0.1690483 -0.05 -0.058516015 21.854292
0.16529574 -0.05 -0.058350339 21.847421
0.16159781 -0.05 -0.05817403 21.841853
0.15795374 -0.05 -0.057987344 21.83875
0.15436282 -0.05 -0.057790427 21.838433
0.15082432 -0.05 -0.057583452 21.839805
0.14733753 -0.05 -0.057366601 21.843962
0.14390175 -0.05 -0.057139996 21.849657
0.14051631 -0.05 -0.056903826 21.85728
0.13718052 -0.05 -0.056658236 21.867239
0.13389371 -0.05 -0.056403424 21.879251
0.13065523 -0.05 -0.056139528 21.894044
0.12746444 -0.05 -0.055866604 21.909272
0.12432069 -0.05 -0.055584859 21.925458
0.12122335 -0.05 -0.055294444 21.94386
0.11817184 -0.05 -0.0549954 21.962672
0.11516554 -0.05 -0.054687825 21.981956
0.11220386 -0.05 -0.054371878 22.001947
0.1092862 -0.05 -0.054047615 22.023419
0.10641201 -0.05 -0.053715153 22.045171
0.10358071 -0.05 -0.053374671 22.070157
0.10079174 -0.05 -0.053026134 22.096817
0.098044573 -0.05 -0.05266962 22.123304
0.095338666 -0.05 -0.052305291 22.152582
0.092673511 -0.05 -0.051933086 22.183673
0.09004859 -0.05 -0.051553092 22.213589
0.087463396 -0.05 -0.051165392 22.24604
0.084917436 -0.05 -0.050770033 22.277832
0.082410225 -0.05 -0.050367078 22.312289
0.079941312 -0.05 -0.049956438 22.345682
0.077510236 -0.05 -0.049538123 22.377616
0.075116537 -0.05 -0.049112224 22.409286
0.07275977 -0.05 -0.048678776 22.442924
0.070439526 -0.05 -0.048237683 22.477003
0.068155391 -0.05 -0.047788918 22.51025
0.065906957 -0.05 -0.047332495 22.544927
0.063693842 -0.05 -0.046868335 22.580054
0.061515673 -0.05 -0.046396367 22.615423
0.059372087 -0.05 -0.045916543 22.652024
0.057262738 -0.05 -0.045428772 22.69096
0.055187275 -0.05 -0.044933035 22.730832
0.0531454 -0.05 -0.044429153 22.773484
0.051136819 -0.05 -0.043916984 22.811513
0.049161223 -0.05 -0.043396476 22.852013
0.047218354 -0.05 -0.042867453 22.892255
0.045307969 -0.05 -0.042329737 22.935566
0.043429866 -0.05 -0.04178306 22.979838
0.041583836 -0.05 -0.041227237 23.023799
0.039769679 -0.05 -0.040662122 23.07029
0.037987251 -0.05 -0.040087437 23.121416
0.036236437 -0.05 -0.039502877 23.176445
0.034517151 -0.05 -0.03890813 23.240661
0.032829332 -0.05 -0.038302884 23.316944
0.031172957 -0.05 -0.037686786 23.40075
0.02954807 -0.05 -0.037059402 23.48567
0.027954722 -0.05 -0.036420348 23.573065
0.026393047 -0.05 -0.035769134 23.656161
0.024863235 -0.05 -0.035105235 23.725381
0.023365528 -0.05 -0.034428133 23.790271
0.021900286 -0.05 -0.033737186 23.860095
0.020467895 -0.05 -0.033031808 23.941314
0.0190689 -0.05 -0.032311253 24.046454
0.017703934 -0.05 -0.031574739 24.158412
0.016373722 -0.05 -0.030821493 24.293806
0.015079175 -0.05 -0.030050633 24.448766
0.013821385 -0.05 -0.029261258 24.639285
0.012601636 -0.05 -0.028452424 24.870959
0.011421439 -0.05 -0.027623074 25.171828
0.0102825 -0.05 -0.026772086 25.594429
0.0091868458 -0.05 -0.025898522 26.086598
0.0081369301 -0.05 -0.025001444 26.558786
0.007135438 -0.05 -0.024079652 26.948748
0.0061853948 -0.05 -0.023132293 27.206182
0.0052905229 -0.05 -0.022159046 27.307293
0.0044546738 -0.05 -0.021159375 27.220398
0.0036819384 -0.05 -0.020133286 26.927843
0.002977107 -0.05 -0.019081896 26.398821
0.002344812 -0.05 -0.018006484 25.581702
0.0017894954 -0.05 -0.016909365 24.431986
0.0013152508 -0.05 -0.015794404 22.93118
0.00092534157 -0.05 -0.014665869 21.07277
0.00062174331 -0.05 -0.013528984 18.863465
0.00040479577 -0.05 -0.012389801 16.281206
0.00027326038 -0.05 -0.01125444 13.306278
0.99622996 -0.05 0.031483417 5.4177465
0.99006079 -0.05 0.03032274 7.0333099
0.98389031 -0.05 0.029169 6.9833648
0.97771854 -0.05 0.028022173 7.5239406
0.97154552 -0.05 0.026882152 7.8575253
0.96537128 -0.05 0.025748781 8.2884464
0.9591958 -0.05 0.024622076 8.6859039
0.95301913 -0.05 0.023501977 9.0983367
0.9468413 -0.05 0.022388327 9.5086776
0.94066231 -0.05 0.021281046 9.9248928
0.9344822 -0.05 0.020180126 10.343334
0.92830096 -0.05 0.019085509 10.766675
0.92211861 -0.05 0.017997119 11.19414
0.91593519 -0.05 0.016914923 11.626246
0.90975071 -0.05 0.015838769 12.061358
0.90356518 -0.05 0.014768661 12.499325
0.89737861 -0.05 0.013704568 12.938925
0.89119104 -0.05 0.012646354 13.381173
0.88500247 -0.05 0.011594007 13.820187
0.87881289 -0.05 0.010547583 14.256869
0.87262233 -0.05 0.0095069461 14.687956
0.86643082 -0.05 0.0084720281 15.115104
0.86023835 -0.05 0.0074428577 15.53144
0.85404495 -0.05 0.0064193494 15.938999
0.84785061 -0.05 0.0054014411 16.334977
0.84165535 -0.05 0.0043891469 16.721791
0.83545918 -0.05 0.0033825029 17.091392
0.82926213 -0.05 0.0023813348 17.447667
0.82306417 -0.05 0.0013856829 17.787929
0.81686534 -0.05 0.00039559359 18.114283
0.81066562 -0.05 -0.00058901212 18.423627
0.80446504 -0.05 -0.0015681436 18.717478
0.7982636 -0.05 -0.002541832 18.995706
0.79206131 -0.05 -0.0035100322 19.260085
0.78585817 -0.05 -0.0044728302 19.508883
0.77965419 -0.05 -0.0054301908 19.743911
0.77344937 -0.05 -0.0063820825 19.96448
0.76724373 -0.05 -0.0073285657 20.172523
0.76103726 -0.05 -0.0082696262 20.368145
0.75482996 -0.05 -0.0092052533 20.552828
0.74862184 -0.05 -0.010135419 20.726812
0.74241291 -0.05 -0.011060109 20.890163
0.73620316 -0.05 -0.011979306 21.042866
0.7299926 -0.05 -0.012892977 21.18497
0.72378124 -0.05 -0.013801153 21.317482
0.71756907 -0.05 -0.014703866 21.441453
0.71135609 -0.05 -0.01560094 21.55712
0.7051423 -0.05 -0.016492425 21.664934
0.69892771 -0.05 -0.017378288 21.76578
0.6927123 -0.05 -0.018258435 21.858392
0.6864961 -0.05 -0.019132923 21.944981
0.6802791 -0.05 -0.020001653 22.024965
0.67406129 -0.05 -0.020864636 22.099538
0.66784266 -0.05 -0.021721755 22.168552
0.66162323 -0.05 -0.022572911 22.232363
0.65540298 -0.05 -0.023418188 22.292279
0.64918193 -0.05 -0.024257498 22.348506
0.64296007 -0.05 -0.025090678 22.399799
0.63673736 -0.05 -0.025917693 22.447504
0.63051386 -0.05 -0.026738546 22.491846
0.62428952 -0.05 -0.0275531 22.532778
0.61806435 -0.05 -0.02836127 22.569951
0.61183835 -0.05 -0.029163052 22.604938
0.60561151 -0.05 -0.029958302 22.636913
0.59938384 -0.05 -0.03074695 22.666303
0.59315532 -0.05 -0.031528911 22.693551
0.58692596 -0.05 -0.032304093 22.719203
0.58069573 -0.05 -0.033072381 22.742872
0.57446466 -0.05 -0.033833633 22.76431
0.56823272 -0.05 -0.034587812 22.783995
0.56199992 -0.05 -0.035334798 22.802425
0.55576623 -0.05 -0.03607443 22.818973
0.54953166 -0.05 -0.036806636 22.83418
0.54329622 -0.05 -0.037531254 22.847727
0.53705987 -0.05 -0.038248145 22.859821
0.53082264 -0.05 -0.038957237 22.870924
0.52458451 -0.05 -0.039658359 22.881216
0.51834547 -0.05 -0.04035137 22.890676
0.51210551 -0.05 -0.0410361 22.899453
0.50586464 -0.05 -0.041712414 22.907348
0.49962285 -0.05 -0.042380186 22.914936
0.49338014 -0.05 -0.04303922 22.921656
0.48713648 -0.05 -0.043689313 22.927816
0.48089188 -0.05 -0.044330338 22.933346
0.47464635 -0.05 -0.04496216 22.938942
0.46839986 -0.05 -0.045584526 22.943777
0.46215243 -0.05 -0.046197224 22.948116
0.45590404 -0.05 -0.04680009 22.951911
0.44965468 -0.05 -0.047392941 22.955679
0.44340437 -0.05 -0.047975551 22.959183
0.43715308 -0.05 -0.048547679 22.962888
0.43090083 -0.05 -0.049109115 22.966669
0.4246476 -0.05 -0.049659661 22.971101
0.41839341 -0.05 -0.050199066 22.97606
0.41213824 -0.05 -0.050727052 22.981599
0.40588211 -0.05 -0.051243394 22.988254
0.39962501 -0.05 -0.051747808 22.996289
0.39336692 -0.05 -0.052239983 23.00524
0.38710787 -0.05 -0.052719704 23.015954
0.38084785 -0.05 -0.053186729 23.028868
0.37458688 -0.05 -0.053640662 23.042949
0.36832495 -0.05 -0.054081178 23.057685
0.36206208 -0.05 -0.054508039 23.073986
0.35579826 -0.05 -0.054920903 23.091199
0.34953352 -0.05 -0.055319416 23.109066
0.34326785 -0.05 -0.055703189 23.127122
0.33700127 -0.05 -0.056071891 23.145664
0.33073382 -0.05 -0.056425132 23.164292
0.32446548 -0.05 -0.056762485 23.182262
0.31819629 -0.05 -0.057083559 23.201033
0.31192627 -0.05 -0.057387938 23.222244
0.30565544 -0.05 -0.057675187 22.99829
0.29455242 -0.05 0.061965404 23.137272
0.28892092 -0.05 0.061710972 22.934057
0.28337117 -0.05 0.061445649 22.975698
0.27790203 -0.05 0.061169597 23.001929
0.27251235 -0.05 0.060883037 23.031702
0.26720106 -0.05 0.060586218 23.062139
0.26196703 -0.05 0.060279367 23.093737
0.2568092 -0.05 0.059962686 23.126301
0.2517265 -0.05 0.059636417 23.159361
0.24671789 -0.05 0.059300763 23.193369
0.24178234 -0.05 0.058955863 23.226813
0.23691885 -0.05 0.058601955 23.260532
0.23212639 -0.05 0.058239239 23.294531
0.22740398 -0.05 0.057867935 23.329807
0.22275064 -0.05 0.057488245 23.365824
0.21816544 -0.05 0.057100303 23.401894
0.21364741 -0.05 0.056704333 23.438568
0.20919561 -0.05 0.056300518 23.476725
0.20480916 -0.05 0.055888953 23.515026
0.20048714 -0.05 0.055469864 23.554043
0.19622865 -0.05 0.055043429 23.593918
0.19203281 -0.05 0.05460984 23.63493
0.18789875 -0.05 0.054169267 23.677129
0.18382563 -0.05 0.053721758 23.718789
0.17981263 -0.05 0.053267529 23.760285
0.1758589 -0.05 0.052806739 23.802207
0.17196362 -0.05 0.052339513 23.843078
0.16812599 -0.05 0.051866025 23.883969
0.16434523 -0.05 0.051386405 23.924808
0.16062055 -0.05 0.050900755 23.966077
0.1569512 -0.05 0.050409177 24.006747
0.1533364 -0.05 0.049911862 24.048232
0.14977543 -0.05 0.049408893 24.0908
0.14626754 -0.05 0.048900381 24.133355
0.14281203 -0.05 0.048386447 24.176492
0.13940817 -0.05 0.047867153 24.219101
0.13605528 -0.05 0.047342628 24.261393
0.13275266 -0.05 0.04681296 24.303167
0.12949964 -0.05 0.046278288 24.343733
0.12629553 -0.05 0.045738694 24.383523
0.12313973 -0.05 0.045194179 24.421174
0.12003155 -0.05 0.044644896 24.457466
0.11697035 -0.05 0.044090938 24.492879
0.11395553 -0.05 0.043532296 24.526553
0.1109865 -0.05 0.042969019 24.55967
0.10806264 -0.05 0.042401211 24.592455
0.10518336 -0.05 0.041828878 24.624071
0.10234807 -0.05 0.041252089 24.653196
0.099556197 -0.05 0.040670975 24.682649
0.096807203 -0.05 0.040085452 24.711314
0.094100538 -0.05 0.039495551 24.737334
0.091435648 -0.05 0.038901389 24.762516
0.088812033 -0.05 0.038302862 24.78559
0.086229172 -0.05 0.037700009 24.804521
0.083686549 -0.05 0.037092873 24.822407
0.081183673 -0.05 0.03648146 24.836039
0.078720052 -0.05 0.035865787 24.848287
0.076295245 -0.05 0.03524573 24.856323
0.073908794 -0.05 0.034621258 24.858886
0.07156023 -0.05 0.033992422 24.856087
0.069249108 -0.05 0.033359221 24.849165
0.066975029 -0.05 0.032721522 24.837651
0.064737583 -0.05 0.032079266 24.821982
0.062536361 -0.05 0.031432427 24.80571
0.060370989 -0.05 0.030780898 24.787788
0.058241104 -0.05 0.030124576 24.768057
0.056146345 -0.05 0.02946338 24.750137
0.054086377 -0.05 0.028797191 24.73094
0.052060853 -0.05 0.02812596 24.707782
0.05006949 -0.05 0.027449483 24.678427
0.048112005 -0.05 0.026767594 24.636489
0.046188099 -0.05 0.026080213 24.587023
0.044297528 -0.05 0.025387146 24.531186
0.042440063 -0.05 0.024688192 24.481147
0.040615529 -0.05 0.023983068 24.439633
0.038823732 -0.05 0.02327157 24.409811
0.037064485 -0.05 0.022553538 24.397613
0.035337667 -0.05 0.021828681 24.390009
0.033643193 -0.05 0.021096686 24.382777
0.031981003 -0.05 0.020357236 24.374239
0.030351058 -0.05 0.019610013 24.358162
0.028753373 -0.05 0.018854663 24.335456
0.027188022 -0.05 0.018090758 24.305865
0.025655094 -0.05 0.017317921 24.2779
0.024154761 -0.05 0.016535674 24.261539
0.022687259 -0.05 0.015743512 24.262734
0.021252872 -0.05 0.014940937 24.287517
0.019852015 -0.05 0.014127341 24.329149
0.01848512 -0.05 0.013302172 24.3727
0.017152796 -0.05 0.012464735 24.412569
0.01585574 -0.05 0.011614305 24.431534
0.014594742 -0.05 0.010750173 24.429201
0.013370781 -0.05 0.0098715382 24.392278
0.012185025 -0.05 0.0089775964 24.319054
0.011038834 -0.05 0.0080675159 24.203174
0.0099338033 -0.05 0.0071403737 24.036638
0.0088717274 -0.05 0.0061951975 23.794802
0.007854707 -0.05 0.005231226 23.473136
0.0068852667 -0.05 0.0042477327 23.054267
0.0059661844 -0.05 0.0032437533 22.521373
0.0051005471 -0.05 0.0022186956 21.844975
0.0042920909 -0.05 0.0011725588 21.004119
0.0035446991 -0.05 0.00010513628 19.960717
0.0028624473 -0.05 -0.00098321694 18.675269
0.0022500128 -0.05 -0.0020909769 17.09719
0.0017119013 -0.05 -0.0032164735 15.153943
0.0012523415 -0.05 -0.0043570227 12.7098
0.0008750815 -0.05 -0.0055084218 9.6784355
0.00058300829 -0.05 -0.0066661414 6.6517516
0.00037764372 -0.05 -0.0078248056 2.4715303
0.00025880954 -0.05 -0.0089783587 6.847542
0.00022474861 -0.05 -0.010120805 10.026185
0.99619151 -0.05 0.032381946 7.3333102
0.98994574 -0.05 0.03301135 11.890999
0.98369925 -0.05 0.033633728 11.644527
0.97745207 -0.05 0.03424911 11.986333
0.97120422 -0.05 0.034857603 12.149503
0.96495572 -0.05 0.035459366 12.332627
0.95870657 -0.05 0.036054382 12.488383
0.9524568 -0.05 0.036642716 12.634083
0.94620641 -0.05 0.037224522 12.768866
0.93995542 -0.05 0.037799887 12.895594
0.93370384 -0.05 0.038368816 13.015259
0.92745169 -0.05 0.038931369 13.12838
0.92119897 -0.05 0.039487623 13.236639
0.9149457 -0.05 0.040037615 13.33963
0.9086919 -0.05 0.040581495 13.43923
0.90243756 -0.05 0.041119263 13.535564
0.8961827 -0.05 0.041650949 13.62824
0.88992735 -0.05 0.042176691 13.718671
0.8836715 -0.05 0.042696502 13.807102
0.87741516 -0.05 0.043210327 13.892782
0.87115833 -0.05 0.043718302 13.976447
0.86490104 -0.05 0.044220497 14.059032
0.85864328 -0.05 0.044716883 14.139488
0.85238507 -0.05 0.045207548 14.218924
0.84612642 -0.05 0.045692554 14.297571
0.83986734 -0.05 0.046171889 14.375155
0.83360783 -0.05 0.046645515 14.451051
0.82734789 -0.05 0.04711361 14.526645
0.82108754 -0.05 0.047576132 14.602367
0.81482678 -0.05 0.048033036 14.676358
0.80856562 -0.05 0.048484402 14.750444
0.80230406 -0.05 0.04893024 14.823889
0.79604211 -0.05 0.049370581 14.897481
0.78977978 -0.05 0.049805381 14.970211
0.78351706 -0.05 0.050234727 15.043047
0.77725398 -0.05 0.050658583 15.116081
0.77099052 -0.05 0.051076918 15.188336
0.76472671 -0.05 0.051489794 15.260881
0.75846253 -0.05 0.051897197 15.333471
0.75219799 -0.05 0.052299115 15.406264
0.74593311 -0.05 0.052695523 15.479196
0.73966788 -0.05 0.053086404 15.552141
0.73340231 -0.05 0.053471744 15.625152
0.7271364 -0.05 0.053851507 15.698038
0.72087015 -0.05 0.054225729 15.771223
0.71460358 -0.05 0.054594437 15.845454
0.70833667 -0.05 0.054957457 15.919737
0.70206944 -0.05 0.055314841 15.994101
0.69580189 -0.05 0.055666554 16.069752
0.68953402 -0.05 0.056012503 16.144807
0.68326583 -0.05 0.056352745 16.221228
0.67699734 -0.05 0.056687181 16.297952
0.67072854 -0.05 0.057015823 16.375686
0.66445943 -0.05 0.057338554 16.454149
0.65819002 -0.05 0.057655273 16.532307
0.6519203 -0.05 0.057966065 16.611841
0.64565029 -0.05 0.058270845 16.692687
0.63937998 -0.05 0.058569444 16.773586
0.63310938 -0.05 0.058861832 16.854986
0.6268385 -0.05 0.059148012 16.937508
0.62056734 -0.05 0.059427844 17.020846
0.61429588 -0.05 0.059701244 17.104524
0.60802415 -0.05 0.05996821 17.189634
0.60175214 -0.05 0.060228596 17.275503
0.59547986 -0.05 0.060482332 17.362219
0.58920731 -0.05 0.060729333 17.45019
0.5829345 -0.05 0.060969509 17.539145
0.57666142 -0.05 0.061202741 17.629361
0.57038808 -0.05 0.061428889 17.720009
0.5641145 -0.05 0.061647918 17.811988
0.55784066 -0.05 0.061859706 17.905202
0.55156657 -0.05 0.062064092 17.99921
0.54529225 -0.05 0.062261004 18.094583
0.5390177 -0.05 0.06245028 18.191104
0.53274291 -0.05 0.062631781 18.288183
0.5264679 -0.05 0.062805436 18.386731
0.52019267 -0.05 0.062971073 18.486441
0.51391724 -0.05 0.06312855 18.587485
0.5076416 -0.05 0.063277699 18.689768
0.50136577 -0.05 0.063418383 18.793061
0.49508975 -0.05 0.063550479 18.897885
0.48881355 -0.05 0.063673789 19.003716
0.48253718 -0.05 0.063788111 19.110521
0.47626065 -0.05 0.063893319 19.218665
0.46998398 -0.05 0.063989276 19.328748
0.46370716 -0.05 0.064075731 19.439923
0.45743022 -0.05 0.064152472 19.551975
0.45115317 -0.05 0.064219335 19.665238
0.44487601 -0.05 0.064276138 19.780032
0.43859877 -0.05 0.064322655 19.896111
0.43232148 -0.05 0.064358647 20.01324
0.42604412 -0.05 0.064383901 20.131686
0.41976672 -0.05 0.064398222 20.251843
0.4134893 -0.05 0.064401361 20.373299
0.4072119 -0.05 0.064393039 20.495835
0.40093452 -0.05 0.064373034 20.619892
0.3946572 -0.05 0.06434106 20.745476
0.38837995 -0.05 0.064296808 20.871658
0.38210279 -0.05 0.064240066 20.998958
0.37582577 -0.05 0.064170594 21.128072
0.36954891 -0.05 0.064087993 21.258533
0.36327223 -0.05 0.063991944 21.389741
0.35699579 -0.05 0.063882207 21.522363
0.3507196 -0.05 0.063758445 21.656225
0.34444371 -0.05 0.063620306 21.791449
0.33816816 -0.05 0.063467401 21.927501
0.331893 -0.05 0.063299403 22.064872
0.32561828 -0.05 0.063115925 22.203719
0.31934405 -0.05 0.062916542 22.342683
0.31307034 -0.05 0.062700866 22.480536
0.30679724 -0.05 0.062468486 22.627032
0.30052479 -0.05 0.062218969 23.007308
