# p  FACE_DATA 448
# x y z  p
0.29472025 -0.05 -0.061844388 99511.463
0.28908808 -0.05 -0.061605225 99507.568
0.28353764 -0.05 -0.061354949 99504.842
0.27806776 -0.05 -0.061093727 99502.008
0.27267734 -0.05 -0.06082178 99499.337
0.26736525 -0.05 -0.060539361 99496.781
0.26213041 -0.05 -0.060246702 99494.344
0.25697174 -0.05 -0.059944005 99492.059
0.25188818 -0.05 -0.059631518 99489.792
0.24687868 -0.05 -0.059309444 99487.712
0.24194221 -0.05 -0.058977926 99485.803
0.23707776 -0.05 -0.058637205 99484.002
0.23228434 -0.05 -0.058287483 99482.328
0.22756095 -0.05 -0.057928983 99480.732
0.2229066 -0.05 -0.057561911 99479.284
0.21832036 -0.05 -0.057186402 99478.015
0.21380127 -0.05 -0.056802682 99476.774
0.2093484 -0.05 -0.056410938 99475.709
0.20496086 -0.05 -0.056011266 99474.822
0.2006377 -0.05 -0.055603896 99474.036
0.19637807 -0.05 -0.055189008 99473.431
0.19218107 -0.05 -0.054766797 99472.842
0.18804583 -0.05 -0.054337433 99472.433
0.18397152 -0.05 -0.053900968 99472.244
0.1799573 -0.05 -0.053457621 99472.111
0.17600233 -0.05 -0.053007551 99472.213
0.17210581 -0.05 -0.052550887 99472.391
0.16826691 -0.05 -0.052087806 99472.721
0.16448485 -0.05 -0.051618437 99473.131
0.16075887 -0.05 -0.051142888 99473.751
0.15708821 -0.05 -0.050661259 99474.53
0.15347208 -0.05 -0.050173746 99475.424
0.14990975 -0.05 -0.049680433 99476.564
0.1464005 -0.05 -0.049181435 99477.781
0.14294361 -0.05 -0.04867687 99479.204
0.13953836 -0.05 -0.048166806 99480.789
0.13618405 -0.05 -0.047651373 99482.539
0.13288001 -0.05 -0.047130661 99484.447
0.12962554 -0.05 -0.04660481 99486.417
0.12642 -0.05 -0.046073906 99488.663
0.12326272 -0.05 -0.045537948 99491.185
0.12015306 -0.05 -0.044997093 99493.77
0.11709038 -0.05 -0.044451437 99496.572
0.11407406 -0.05 -0.043900971 99499.6
0.11110351 -0.05 -0.043345745 99502.807
0.10817811 -0.05 -0.042785865 99506.125
0.10529728 -0.05 -0.042221341 99509.825
0.10246045 -0.05 -0.041652241 99513.632
0.099667013 -0.05 -0.041078698 99517.671
0.096916442 -0.05 -0.04050063 99522.114
0.094208188 -0.05 -0.039918069 99526.675
0.091541697 -0.05 -0.039331134 99531.388
0.08891647 -0.05 -0.038739722 99536.477
0.086331983 -0.05 -0.038143875 99541.674
0.083787725 -0.05 -0.037543635 99547.348
0.0812832 -0.05 -0.03693901 99553.153
0.078817919 -0.05 -0.036330018 99559.385
0.07639144 -0.05 -0.035716536 99566.07
0.074003305 -0.05 -0.035098537 99573.088
0.071653044 -0.05 -0.034476071 99580.2
0.069340214 -0.05 -0.033849138 99587.609
0.067064414 -0.05 -0.033217606 99595.533
0.064825234 -0.05 -0.032581419 99603.872
0.062622267 -0.05 -0.031940551 99612.67
0.060455137 -0.05 -0.031294895 99622.017
0.05832348 -0.05 -0.030644349 99631.784
0.056226936 -0.05 -0.029988833 99641.951
0.05416517 -0.05 -0.029328233 99652.651
0.052137834 -0.05 -0.028662496 99663.736
0.050144644 -0.05 -0.02799142 99675.755
0.048185318 -0.05 -0.027314841 99688.412
0.046259555 -0.05 -0.026632679 99701.872
0.044367112 -0.05 -0.025944738 99715.889
0.042507759 -0.05 -0.025250824 99730.453
0.04068132 -0.05 -0.024550649 99745.77
0.0388876 -0.05 -0.023844011 99762.112
0.037126413 -0.05 -0.023130752 99779.596
0.035397636 -0.05 -0.022410579 99798.422
0.033701184 -0.05 -0.021683181 99818.303
0.032036994 -0.05 -0.02094824 99839.066
0.030405031 -0.05 -0.020205438 99860.794
0.028805304 -0.05 -0.019454423 99884.241
0.027237887 -0.05 -0.018694765 99909.869
0.025702869 -0.05 -0.017926087 99937.159
0.024200421 -0.05 -0.017147911 99966.335
0.022730777 -0.05 -0.016359729 99997.146
0.02129422 -0.05 -0.015561045 100029.7
0.019891162 -0.05 -0.01475125 100064.43
0.018522034 -0.05 -0.013929791 100101.75
0.017187445 -0.05 -0.013095969 100142.3
0.015888089 -0.05 -0.012249058 100186.04
0.014624752 -0.05 -0.011388347 100233.51
0.013398414 -0.05 -0.010513035 100285.44
0.012210239 -0.05 -0.0096223115 100342.69
0.011061584 -0.05 -0.0087153417 100404.74
0.0099540443 -0.05 -0.0077911988 100470.99
0.0088894096 -0.05 -0.0068489054 100541.76
0.0078697794 -0.05 -0.0058876946 100617.38
0.0068976764 -0.05 -0.0049068333 100698.56
0.0059758756 -0.05 -0.0039053493 100784.68
0.0051074623 -0.05 -0.0028826422 100876.54
0.0042961729 -0.05 -0.0018387011 100972.72
0.0035458899 -0.05 -0.0007733088 101071.7
0.0028606899 -0.05 0.0003131907 101171.74
0.0022452544 -0.05 0.0014192862 101269.9
0.0017040935 -0.05 0.0025433198 101362.33
0.0012414432 -0.05 0.003682619 101443.1
0.000861063 -0.05 0.0048329909 101509.63
0.00056585215 -0.05 0.0059899144 101557.62
0.00035734704 -0.05 0.0071480175 101580.85
0.00023538585 -0.05 0.0083012442 101578.38
0.00019822773 -0.05 0.0094435946 101549.81
0.99627656 -0.05 -0.030358803 100119.99
0.99003251 -0.05 -0.031005137 100055.49
0.98378774 -0.05 -0.031644448 100048.38
0.97754226 -0.05 -0.032276765 100031.74
0.97129608 -0.05 -0.032902194 100019.87
0.96504924 -0.05 -0.033520896 100008.27
0.95880172 -0.05 -0.034132852 99998.04
0.95255355 -0.05 -0.034738127 99988.409
0.94630477 -0.05 -0.035336878 99979.454
0.94005536 -0.05 -0.035929187 99970.911
0.93380536 -0.05 -0.036515063 99962.928
0.92755475 -0.05 -0.037094565 99955.239
0.92130356 -0.05 -0.037667769 99947.982
0.9150518 -0.05 -0.038234712 99940.973
0.90879949 -0.05 -0.038795546 99934.186
0.90254664 -0.05 -0.039350267 99927.73
0.89629326 -0.05 -0.03989891 99921.491
0.89003935 -0.05 -0.040441609 99915.381
0.88378493 -0.05 -0.040978378 99909.484
0.87753 -0.05 -0.041509162 99903.848
0.87127457 -0.05 -0.042034098 99898.234
0.86501866 -0.05 -0.042553256 99892.805
0.85876228 -0.05 -0.043066606 99887.523
0.85250542 -0.05 -0.043574236 99882.332
0.84624811 -0.05 -0.044076209 99877.195
0.83999035 -0.05 -0.044572511 99872.221
0.83373214 -0.05 -0.045063106 99867.405
0.8274735 -0.05 -0.04554817 99862.502
0.82121443 -0.05 -0.046027663 99857.846
0.81495493 -0.05 -0.04650154 99853.164
0.80869501 -0.05 -0.046969879 99848.626
0.80243468 -0.05 -0.04743269 99844.056
0.79617395 -0.05 -0.047890008 99839.585
0.78991282 -0.05 -0.048341784 99835.212
0.7836513 -0.05 -0.048788107 99830.775
0.77738939 -0.05 -0.049228941 99826.519
0.77112709 -0.05 -0.049664257 99822.26
0.76486441 -0.05 -0.050094113 99818.036
0.75860136 -0.05 -0.050518497 99813.838
0.75233794 -0.05 -0.050937398 99809.641
0.74607415 -0.05 -0.05135079 99805.487
0.73981001 -0.05 -0.051758655 99801.404
0.7335455 -0.05 -0.05216098 99797.329
0.72728065 -0.05 -0.05255773 99793.343
0.72101544 -0.05 -0.052948938 99789.288
0.71474989 -0.05 -0.053334634 99785.191
0.70848398 -0.05 -0.053714643 99781.277
0.70221775 -0.05 -0.054089017 99777.18
0.69595117 -0.05 -0.054457722 99773.257
0.68968427 -0.05 -0.054820662 99769.233
0.68341703 -0.05 -0.055177897 99765.24
0.67714946 -0.05 -0.055529327 99761.247
0.67088157 -0.05 -0.055874963 99757.17
0.66461335 -0.05 -0.056214689 99753.204
0.65834482 -0.05 -0.056548403 99749.235
0.65207598 -0.05 -0.056876192 99745.16
0.64580682 -0.05 -0.05719797 99741.118
0.63953734 -0.05 -0.057513569 99737.101
0.63326756 -0.05 -0.057822957 99733.047
0.62699748 -0.05 -0.058126136 99728.935
0.62072709 -0.05 -0.058422968 99724.919
0.6144564 -0.05 -0.058713371 99720.856
0.60818542 -0.05 -0.058997338 99716.752
0.60191414 -0.05 -0.059274728 99712.675
0.59564257 -0.05 -0.059545468 99708.532
0.58937071 -0.05 -0.059809474 99704.393
0.58309857 -0.05 -0.060066655 99700.173
0.57682614 -0.05 -0.060316894 99695.989
0.57055344 -0.05 -0.060560049 99691.788
0.56428047 -0.05 -0.060796085 99687.566
0.55800724 -0.05 -0.061024882 99683.329
0.55173373 -0.05 -0.061246277 99679.116
0.54545997 -0.05 -0.061460199 99674.822
0.53918595 -0.05 -0.061666485 99670.629
0.53291167 -0.05 -0.061864998 99666.364
0.52663716 -0.05 -0.062055664 99662.091
0.5203624 -0.05 -0.062238312 99657.81
0.51408742 -0.05 -0.062412803 99653.55
0.50781221 -0.05 -0.062578966 99649.303
0.50153677 -0.05 -0.062736664 99645.022
0.49526114 -0.05 -0.062885775 99640.714
0.4889853 -0.05 -0.0630261 99636.438
0.48270926 -0.05 -0.063157437 99632.186
0.47643304 -0.05 -0.063279662 99627.872
0.47015665 -0.05 -0.063392636 99623.533
0.46388009 -0.05 -0.063496108 99619.275
0.45760338 -0.05 -0.063589865 99614.997
0.45132653 -0.05 -0.063673746 99610.714
0.44504956 -0.05 -0.063747567 99606.405
0.43877247 -0.05 -0.063811102 99602.138
0.43249529 -0.05 -0.063864112 99597.879
0.42621802 -0.05 -0.063906385 99593.627
0.41994068 -0.05 -0.063937726 99589.343
0.41366331 -0.05 -0.063957883 99585.131
0.4073859 -0.05 -0.06396658 99580.924
0.4011085 -0.05 -0.063963594 99576.692
0.3948311 -0.05 -0.063948639 99572.494
0.38855376 -0.05 -0.063921406 99568.387
0.38227648 -0.05 -0.063881682 99564.235
0.37599928 -0.05 -0.063829228 99560.056
0.36972222 -0.05 -0.063763644 99555.987
0.36344531 -0.05 -0.063684612 99552.012
0.35716858 -0.05 -0.063591891 99547.995
0.35089209 -0.05 -0.063485147 99544.016
0.34461585 -0.05 -0.063364023 99540.065
0.33833991 -0.05 -0.063228133 99536.231
0.33206431 -0.05 -0.063077148 99532.339
0.32578912 -0.05 -0.062910682 99528.523
0.31951437 -0.05 -0.062728309 99524.815
0.3132401 -0.05 -0.062529643 99521.407
0.30696639 -0.05 -0.062314271 99517.702
0.30069329 -0.05 -0.06208176 99512.985
0.29952598 -0.05 0.058067252 99449.634
0.29389275 -0.05 0.058279576 99442.744
0.28834007 -0.05 0.058474283 99435.23
0.28286683 -0.05 0.058651631 99427.999
0.27747194 -0.05 0.058811931 99420.821
0.27215428 -0.05 0.058955523 99413.781
0.26691281 -0.05 0.059082728 99406.784
0.26174646 -0.05 0.05919383 99400.019
0.2566542 -0.05 0.059289162 99393.251
0.25163499 -0.05 0.059369011 99386.674
0.24668782 -0.05 0.059433604 99380.193
0.24181171 -0.05 0.059483258 99373.844
0.23700568 -0.05 0.059518256 99367.532
0.23226874 -0.05 0.059538901 99361.325
0.22759995 -0.05 0.059545476 99355.185
0.22299837 -0.05 0.05953819 99349.226
0.21846306 -0.05 0.059517345 99343.245
0.21399314 -0.05 0.059483204 99337.463
0.20958767 -0.05 0.059435932 99331.832
0.20524578 -0.05 0.059375834 99326.297
0.20096661 -0.05 0.059303158 99320.896
0.19674928 -0.05 0.059218171 99315.427
0.19259296 -0.05 0.059121111 99310.055
0.18849678 -0.05 0.059012097 99304.932
0.18445995 -0.05 0.058891414 99299.792
0.18048165 -0.05 0.058759289 99294.896
0.17656107 -0.05 0.058615914 99289.993
0.17269743 -0.05 0.058461529 99285.226
0.16888995 -0.05 0.058296329 99280.491
0.16513786 -0.05 0.05812048 99275.994
0.16144042 -0.05 0.057934146 99271.565
0.15779687 -0.05 0.057737582 99267.17
0.15420649 -0.05 0.05753093 99262.965
0.15066857 -0.05 0.057314363 99258.771
0.14718238 -0.05 0.057088059 99254.733
0.14374723 -0.05 0.056852139 99250.804
0.14036244 -0.05 0.056606792 99246.93
0.13702732 -0.05 0.056352159 99243.259
0.13374121 -0.05 0.056088437 99239.536
0.13050346 -0.05 0.055815762 99236.046
0.12731342 -0.05 0.055534188 99232.721
0.12417045 -0.05 0.055243922 99229.388
0.12107392 -0.05 0.054945111 99226.201
0.11802323 -0.05 0.054637795 99223.176
0.11501777 -0.05 0.05432207 99220.242
0.11205695 -0.05 0.053998095 99217.377
0.10914019 -0.05 0.053665923 99214.845
0.10626691 -0.05 0.053325669 99212.265
0.10343654 -0.05 0.052977513 99209.725
0.10064852 -0.05 0.052621416 99207.544
0.097902337 -0.05 0.052257455 99205.32
0.095197428 -0.05 0.051885792 99203.187
0.092533291 -0.05 0.051506363 99201.495
0.08990941 -0.05 0.051119253 99199.742
0.087325278 -0.05 0.050724546 99198.265
0.084780399 -0.05 0.050322286 99196.687
0.08227429 -0.05 0.049912535 99195.363
0.079806498 -0.05 0.049495202 99194.413
0.077376566 -0.05 0.049070298 99193.732
0.07498403 -0.05 0.048637911 99193.097
0.072628446 -0.05 0.048198076 99192.664
0.070309407 -0.05 0.047750693 99192.634
0.068026497 -0.05 0.047295738 99192.756
0.065779309 -0.05 0.046833221 99193.082
0.06356746 -0.05 0.046363062 99193.696
0.06139058 -0.05 0.045885191 99194.585
0.059248302 -0.05 0.045399556 99195.746
0.057140283 -0.05 0.044906069 99197.264
0.055066171 -0.05 0.044404707 99198.911
0.05302567 -0.05 0.043895291 99201.435
0.051018484 -0.05 0.043377679 99204.209
0.049044307 -0.05 0.042851816 99207.515
0.04710288 -0.05 0.042317528 99211.165
0.04519396 -0.05 0.041774634 99215.481
0.043317346 -0.05 0.041222868 99220.592
0.041472831 -0.05 0.040662041 99226.352
0.039660212 -0.05 0.040092011 99232.67
0.037879348 -0.05 0.039512495 99239.935
0.036130125 -0.05 0.03892319 99248.01
0.034412459 -0.05 0.038323784 99257.157
0.032726285 -0.05 0.037713964 99267.188
0.031071588 -0.05 0.037093378 99278.513
0.029448407 -0.05 0.036461591 99291.104
0.027856797 -0.05 0.03581822 99305.067
0.026296893 -0.05 0.035162774 99320.769
0.024768887 -0.05 0.034494731 99338.316
0.023273023 -0.05 0.033813571 99358.039
0.021809659 -0.05 0.033118654 99380.302
0.020379184 -0.05 0.032409395 99404.901
0.018982149 -0.05 0.03168505 99432.93
0.017619185 -0.05 0.030944837 99464.191
0.01629102 -0.05 0.030187987 99499.69
0.014998567 -0.05 0.029413621 99539.702
0.013742922 -0.05 0.028620839 99584.357
0.012525371 -0.05 0.027808701 99634.351
0.011347427 -0.05 0.026976154 99690.442
0.010210798 -0.05 0.026122081 99752.822
0.0091175165 -0.05 0.02524555 99823.009
0.0080700368 -0.05 0.024345629 99903.123
0.0070710475 -0.05 0.023421125 99993.526
0.0061235762 -0.05 0.022471194 100092.97
0.0052313462 -0.05 0.021495525 100204.17
0.0043982103 -0.05 0.020493592 100326.54
0.0036282597 -0.05 0.019465411 100458.92
0.0029262814 -0.05 0.018412114 100600.2
0.0022969042 -0.05 0.017334992 100748.16
0.001744564 -0.05 0.016236371 100898.64
0.001273344 -0.05 0.015120129 101046.3
0.00088649583 -0.05 0.01399054 101185.96
0.00058598094 -0.05 0.012852837 101310.73
0.00037212268 -0.05 0.011713069 101414.37
0.00024366588 -0.05 0.010577357 101494.44
0.99631258 -0.05 -0.029460173 100012.91
0.99014028 -0.05 -0.028316226 100014.66
0.9839667 -0.05 -0.027179219 100008.8
0.97779184 -0.05 -0.026049128 100010.13
0.97161575 -0.05 -0.024925848 100007.72
0.96543845 -0.05 -0.02380922 100007.17
0.95925995 -0.05 -0.022699262 100005.69
0.95308026 -0.05 -0.021595912 100004.69
0.94689943 -0.05 -0.020499017 100003.44
0.94071747 -0.05 -0.01940849 100002.33
0.93453439 -0.05 -0.01832433 100001.11
0.92835021 -0.05 -0.017246475 99999.946
0.92216494 -0.05 -0.016174851 99998.71
0.9159786 -0.05 -0.015109422 99997.523
0.90979122 -0.05 -0.01405004 99996.251
0.90360282 -0.05 -0.012996706 99995.022
0.89741339 -0.05 -0.011949389 99993.717
0.89122298 -0.05 -0.010907955 99992.438
0.88503157 -0.05 -0.0098723891 99991.081
0.87883917 -0.05 -0.0088427499 99989.742
0.87264582 -0.05 -0.0078188998 99988.323
0.86645153 -0.05 -0.0068007714 99986.918
0.86025629 -0.05 -0.0057883934 99985.412
0.85406013 -0.05 -0.00478168 99983.916
0.84786306 -0.05 -0.0037805692 99982.33
0.84166508 -0.05 -0.0027850748 99980.74
0.83546621 -0.05 -0.0017952332 99979.059
0.82926646 -0.05 -0.00081086982 99977.36
0.82306583 -0.05 0.00016797498 99975.579
0.81686433 -0.05 0.0011412548 99973.777
0.81066197 -0.05 0.0021090487 99971.863
0.80445876 -0.05 0.0030713658 99969.927
0.7982547 -0.05 0.0040282378 99967.882
0.7920498 -0.05 0.0049796192 99965.798
0.78584408 -0.05 0.0059255962 99963.578
0.77963753 -0.05 0.0068661335 99961.317
0.77343015 -0.05 0.0078011996 99958.928
0.76722196 -0.05 0.008730855 99956.484
0.76101295 -0.05 0.0096550853 99953.834
0.75480314 -0.05 0.01057388 99951.14
0.74859253 -0.05 0.011487212 99948.287
0.74238111 -0.05 0.012395064 99945.37
0.7361689 -0.05 0.013297423 99942.259
0.72995588 -0.05 0.014194253 99939.076
0.72374208 -0.05 0.015085587 99935.708
0.71752749 -0.05 0.015971453 99932.244
0.7113121 -0.05 0.016851679 99928.547
0.70509591 -0.05 0.017726316 99924.749
0.69887894 -0.05 0.018595327 99920.784
0.69266118 -0.05 0.01945862 99916.693
0.68644263 -0.05 0.020316252 99912.361
0.68022329 -0.05 0.021168123 99907.925
0.67400316 -0.05 0.022014245 99903.269
0.66778224 -0.05 0.022854502 99898.52
0.66156052 -0.05 0.023688793 99893.403
0.655338 -0.05 0.024517202 99888.207
0.6491147 -0.05 0.025339644 99882.78
0.6428906 -0.05 0.026155952 99877.259
0.63666568 -0.05 0.026966094 99871.44
0.63043996 -0.05 0.027770071 99865.516
0.62421344 -0.05 0.028567747 99859.415
0.61798611 -0.05 0.029359036 99853.196
0.61175795 -0.05 0.030143936 99846.673
0.60552899 -0.05 0.030922303 99840.087
0.59929921 -0.05 0.031694063 99833.289
0.59306859 -0.05 0.032459135 99826.421
0.58683714 -0.05 0.033217426 99819.323
0.58060486 -0.05 0.03396882 99812.168
0.57437174 -0.05 0.034713175 99804.865
0.56813778 -0.05 0.035450456 99797.489
0.56190297 -0.05 0.036180541 99790.011
0.5556673 -0.05 0.036903271 99782.539
0.54943078 -0.05 0.037618571 99774.945
0.54319338 -0.05 0.038326281 99767.317
0.53695512 -0.05 0.039026262 99759.543
0.53071599 -0.05 0.039718442 99751.744
0.52447598 -0.05 0.040402649 99743.925
0.51823508 -0.05 0.041078742 99736.061
0.5119933 -0.05 0.041746553 99728.154
0.50575061 -0.05 0.042405944 99720.171
0.49950703 -0.05 0.043056791 99712.15
0.49326255 -0.05 0.043698897 99704.119
0.48701715 -0.05 0.04433206 99696.14
0.48077084 -0.05 0.044956154 99688.094
0.47452362 -0.05 0.045571041 99679.996
0.46827547 -0.05 0.04617647 99671.856
0.4620264 -0.05 0.046772228 99663.741
0.45577639 -0.05 0.047358151 99655.634
0.44952546 -0.05 0.047934057 99647.541
0.44327358 -0.05 0.048499719 99639.398
0.43702077 -0.05 0.049054897 99631.229
0.43076702 -0.05 0.049599381 99623.02
0.42451233 -0.05 0.050132971 99614.815
0.4182567 -0.05 0.050655418 99606.66
0.41200012 -0.05 0.051166444 99598.542
0.40574261 -0.05 0.051665823 99590.314
0.39948415 -0.05 0.052153271 99582.077
0.39322476 -0.05 0.052628478 99573.839
0.38696444 -0.05 0.053091228 99565.588
0.38070318 -0.05 0.05354128 99557.346
0.37444099 -0.05 0.053978236 99549.207
0.36817789 -0.05 0.054401774 99540.962
0.36191388 -0.05 0.054811654 99532.655
0.35564897 -0.05 0.055207535 99524.319
0.34938316 -0.05 0.055589062 99516.014
0.34311648 -0.05 0.055955846 99507.792
0.33684894 -0.05 0.056307558 99499.544
0.33058055 -0.05 0.056643804 99491.31
0.32431132 -0.05 0.056964161 99483.031
0.31804128 -0.05 0.057268238 99474.575
0.31177045 -0.05 0.057555617 99465.834
0.30549887 -0.05 0.057825864 99458.477
