# wallShearStress  FACE_DATA 448
# x y z  wallShearStress_x wallShearStress_y wallShearStress_z
0.29472025 -0.05 -0.061844388 -7.101808 -3.8147474e-16 0.29569898
0.28908808 -0.05 -0.061605225 -6.9933713 2.6799758e-16 0.30935711
0.28353764 -0.05 -0.061354949 -6.9576391 -7.6346091e-17 0.32615893
0.27806776 -0.05 -0.061093727 -6.9161593 3.6820086e-16 0.34284218
0.27267734 -0.05 -0.06082178 -6.8787659 1.8202632e-16 0.35958134
0.26736525 -0.05 -0.060539361 -6.8432332 6.1110032e-16 0.37646992
0.26213041 -0.05 -0.060246702 -6.8100016 7.879511e-17 0.39343541
0.25697174 -0.05 -0.059944005 -6.7788166 1.4365318e-17 0.41059242
0.25188818 -0.05 -0.059631518 -6.7498397 -4.5660675e-16 0.42779725
0.24687868 -0.05 -0.059309444 -6.7230268 -1.9812118e-17 0.44534351
0.24194221 -0.05 -0.058977926 -6.6974915 1.2151611e-16 0.46295507
0.23707776 -0.05 -0.058637205 -6.6736118 1.1933022e-16 0.48071053
0.23228434 -0.05 -0.058287483 -6.651283 2.3456462e-16 0.49860126
0.22756095 -0.05 -0.057928983 -6.6301361 8.8506897e-17 0.51665025
0.2229066 -0.05 -0.057561911 -6.6104802 4.1753812e-16 0.5349743
0.21832036 -0.05 -0.057186402 -6.5922011 2.8027335e-16 0.55355818
0.21380127 -0.05 -0.056802682 -6.5756149 -2.9157527e-17 0.57227632
0.2093484 -0.05 -0.056410938 -6.5611658 2.7591312e-16 0.59148612
0.20496086 -0.05 -0.056011266 -6.5479752 1.0268986e-16 0.61089641
0.2006377 -0.05 -0.055603896 -6.5363527 4.8539053e-16 0.63052344
0.19637807 -0.05 -0.055189008 -6.5263458 -6.3857052e-17 0.65050751
0.19218107 -0.05 -0.054766797 -6.5180029 9.9459548e-17 0.67073788
0.18804583 -0.05 -0.054337433 -6.5114696 5.4117464e-16 0.69152092
0.18397152 -0.05 -0.053900968 -6.5056183 2.1051726e-16 0.71261984
0.1799573 -0.05 -0.053457621 -6.5008224 -1.6696087e-16 0.73394158
0.17600233 -0.05 -0.053007551 -6.497519 -1.8228296e-16 0.75582184
0.17210581 -0.05 -0.052550887 -6.4951773 -6.1366005e-17 0.77794235
0.16826691 -0.05 -0.052087806 -6.4945333 -8.0609368e-17 0.80062307
0.16448485 -0.05 -0.051618437 -6.4953276 2.219719e-17 0.82376911
0.16075887 -0.05 -0.051142888 -6.4976075 1.4317767e-16 0.84753203
0.15708821 -0.05 -0.050661259 -6.5008657 -5.0741309e-16 0.8716382
0.15347208 -0.05 -0.050173746 -6.5055882 3.4922366e-16 0.89629082
0.14990975 -0.05 -0.049680433 -6.5114527 -3.1848981e-17 0.92153519
0.1464005 -0.05 -0.049181435 -6.5181701 3.7957463e-16 0.94720217
0.14294361 -0.05 -0.04867687 -6.5260561 2.0222159e-16 0.97356871
0.13953836 -0.05 -0.048166806 -6.5343692 2.8411036e-16 1.0003988
0.13618405 -0.05 -0.047651373 -6.5434876 5.5892915e-16 1.0278042
0.13288001 -0.05 -0.047130661 -6.5536355 -4.0797902e-16 1.0558303
0.12962554 -0.05 -0.04660481 -6.565155 -4.7133379e-16 1.0845403
0.12642 -0.05 -0.046073906 -6.5777054 1.2992554e-16 1.1141408
0.12326272 -0.05 -0.045537948 -6.5901288 -2.9794538e-16 1.1441315
0.12015306 -0.05 -0.044997093 -6.6033416 -2.8572921e-17 1.1747567
0.11709038 -0.05 -0.044451437 -6.6180916 -7.8979745e-17 1.2064896
0.11407406 -0.05 -0.043900971 -6.6335407 2.1349562e-16 1.2390414
0.11110351 -0.05 -0.043345745 -6.6500751 3.2227518e-16 1.2724462
0.10817811 -0.05 -0.042785865 -6.6680548 9.0768488e-16 1.3068879
0.10529728 -0.05 -0.042221341 -6.6865622 -8.3018802e-16 1.3421717
0.10246045 -0.05 -0.041652241 -6.7045115 -9.7825292e-17 1.3778668
0.099667013 -0.05 -0.041078698 -6.7227559 -1.581701e-16 1.4147182
0.096916442 -0.05 -0.04050063 -6.7400626 8.8234766e-16 1.4522488
0.094208188 -0.05 -0.039918069 -6.75665 2.9139661e-16 1.4902978
0.091541697 -0.05 -0.039331134 -6.7745348 -3.3082609e-16 1.52993
0.08891647 -0.05 -0.038739722 -6.7931894 -5.1298731e-16 1.5708699
0.086331983 -0.05 -0.038143875 -6.8121513 -1.6656854e-16 1.6127828
0.083787725 -0.05 -0.037543635 -6.8322138 8.6318484e-16 1.6561314
0.0812832 -0.05 -0.03693901 -6.8521562 4.3663646e-16 1.7004873
0.078817919 -0.05 -0.036330018 -6.8731109 5.949363e-16 1.7466836
0.07639144 -0.05 -0.035716536 -6.8927983 4.3009111e-16 1.7936711
0.074003305 -0.05 -0.035098537 -6.911549 -2.2160174e-16 1.8415007
0.071653044 -0.05 -0.034476071 -6.9304959 -6.8510494e-16 1.890913
0.069340214 -0.05 -0.033849138 -6.9498207 3.2242914e-16 1.9423799
0.067064414 -0.05 -0.033217606 -6.9674161 -8.8629188e-16 1.9949411
0.064825234 -0.05 -0.032581419 -6.9825552 1.3600625e-16 2.0483469
0.062622267 -0.05 -0.031940551 -6.9960645 4.0826471e-16 2.1032667
0.060455137 -0.05 -0.031294895 -7.0084612 2.6556992e-16 2.1597407
0.05832348 -0.05 -0.030644349 -7.0202256 9.6673052e-17 2.2180754
0.056226936 -0.05 -0.029988833 -7.0316911 -5.1788219e-16 2.2786769
0.05416517 -0.05 -0.029328233 -7.0430557 -7.3291327e-16 2.3413827
0.052137834 -0.05 -0.028662496 -7.0536922 1.9435821e-17 2.406816
0.050144644 -0.05 -0.02799142 -7.0637179 -1.0626224e-15 2.4747163
0.048185318 -0.05 -0.027314841 -7.0701097 4.8211125e-17 2.5434864
0.046259555 -0.05 -0.026632679 -7.0740849 2.7085971e-16 2.6142371
0.044367112 -0.05 -0.025944738 -7.0736987 8.3653779e-18 2.6867155
0.042507759 -0.05 -0.025250824 -7.0699874 1.6235541e-16 2.762717
0.04068132 -0.05 -0.024550649 -7.062965 6.0516947e-16 2.8418648
0.0388876 -0.05 -0.023844011 -7.0496697 -3.0474659e-16 2.9217976
0.037126413 -0.05 -0.023130752 -7.0270517 -6.3596594e-16 3.0022433
0.035397636 -0.05 -0.022410579 -6.9964845 8.5780184e-17 3.0836323
0.033701184 -0.05 -0.021683181 -6.9599131 -3.2592744e-16 3.1670552
0.032036994 -0.05 -0.02094824 -6.9245843 1.7499776e-16 3.2558759
0.030405031 -0.05 -0.020205438 -6.8955308 6.7801193e-16 3.3521819
0.028805304 -0.05 -0.019454423 -6.8671874 9.049387e-16 3.4531505
0.027237887 -0.05 -0.018694765 -6.8256897 4.8288048e-16 3.5511338
0.025702869 -0.05 -0.017926087 -6.7603525 2.54321e-16 3.644769
0.024200421 -0.05 -0.017147911 -6.6657772 1.3026202e-15 3.7351825
0.022730777 -0.05 -0.016359729 -6.5318097 -2.1320113e-16 3.8228332
0.02129422 -0.05 -0.015561045 -6.3636245 -2.8260884e-16 3.9160897
0.019891162 -0.05 -0.01475125 -6.1792277 -3.8337096e-16 4.023237
0.018522034 -0.05 -0.013929791 -5.9927256 -2.7267309e-16 4.1510791
0.017187445 -0.05 -0.013095969 -5.7972131 2.6595696e-16 4.2958767
0.015888089 -0.05 -0.012249058 -5.6004648 3.1737572e-18 4.463035
0.014624752 -0.05 -0.011388347 -5.4123982 6.6803377e-16 4.6603079
0.013398414 -0.05 -0.010513035 -5.2354554 -6.8147062e-17 4.8817691
0.012210239 -0.05 -0.0096223115 -5.0908455 1.239254e-15 5.1183296
0.011061584 -0.05 -0.0087153417 -5.0023451 -6.4031854e-16 5.3705181
0.0099540443 -0.05 -0.0077911988 -4.9339604 5.7530383e-16 5.6204216
0.0088894096 -0.05 -0.0068489054 -4.8368475 1.106265e-17 5.8280273
0.0078697794 -0.05 -0.0058876946 -4.6664898 7.460019e-16 5.9669743
0.0068976764 -0.05 -0.0049068333 -4.4018514 -4.4053403e-16 6.0257376
0.0059758756 -0.05 -0.0039053493 -4.0486956 4.6698093e-16 5.9886715
0.0051074623 -0.05 -0.0028826422 -3.6264842 5.4474265e-16 5.8436627
0.0042961729 -0.05 -0.0018387011 -3.1541485 -5.2761567e-18 5.5733225
0.0035458899 -0.05 -0.0007733088 -2.6491687 -4.3498333e-16 5.186676
0.0028606899 -0.05 0.0003131907 -2.1331432 1.5907982e-16 4.6640637
0.0022452544 -0.05 0.0014192862 -1.6286888 -7.5275156e-16 4.0209246
0.0017040935 -0.05 0.0025433198 -1.1611999 1.9188491e-16 3.2736027
0.0012414432 -0.05 0.003682619 -0.76027352 -5.5355112e-17 2.4359927
0.000861063 -0.05 0.0048329909 -0.45076214 -1.8258134e-16 1.5342573
0.00056585215 -0.05 0.0059899144 -0.26453498 3.0404837e-17 0.79421802
0.00035734704 -0.05 0.0071480175 -0.16524252 1.2796381e-16 0.19536212
0.00023538585 -0.05 0.0083012442 -0.12717446 -9.1578527e-17 -0.36526392
0.00019822773 -0.05 0.0094435946 -0.14358654 6.6907868e-19 -1.0246752
0.99627656 -0.05 -0.030358803 -23.448319 -1.7102918e-15 -2.4866469
0.99003251 -0.05 -0.031005137 -27.61843 6.8684207e-16 -2.8403823
0.98378774 -0.05 -0.031644448 -27.944848 -1.2368884e-16 -2.8294156
0.97754226 -0.05 -0.032276765 -27.690307 3.0408673e-16 -2.7751109
0.97129608 -0.05 -0.032902194 -27.546009 1.319621e-15 -2.7303615
0.96504924 -0.05 -0.033520896 -27.362527 2.5604725e-15 -2.6825273
0.95880172 -0.05 -0.034132852 -27.178529 5.8844554e-16 -2.6349373
0.95255355 -0.05 -0.034738127 -26.9845 5.1914525e-16 -2.587688
0.94630477 -0.05 -0.035336878 -26.782492 5.3468278e-16 -2.5403108
0.94005536 -0.05 -0.035929187 -26.572004 -1.1836317e-16 -2.4929705
0.93380536 -0.05 -0.036515063 -26.35459 1.1680176e-15 -2.4452586
0.92755475 -0.05 -0.037094565 -26.133674 -1.0498817e-16 -2.398263
0.92130356 -0.05 -0.037667769 -25.911961 -5.9015578e-16 -2.3515472
0.9150518 -0.05 -0.038234712 -25.691174 -5.2420434e-17 -2.3059237
0.90879949 -0.05 -0.038795546 -25.471854 -4.1089602e-16 -2.2611088
0.90254664 -0.05 -0.039350267 -25.252076 5.209307e-16 -2.2167462
0.89629326 -0.05 -0.03989891 -25.030165 -4.2501729e-16 -2.1731797
0.89003935 -0.05 -0.040441609 -24.804001 3.668411e-16 -2.1299833
0.88378493 -0.05 -0.040978378 -24.571153 7.7480442e-16 -2.0865809
0.87753 -0.05 -0.041509162 -24.331705 2.6105966e-17 -2.0431702
0.87127457 -0.05 -0.042034098 -24.09013 -3.3558273e-16 -2.000473
0.86501866 -0.05 -0.042553256 -23.851266 8.907152e-16 -1.9581265
0.85876228 -0.05 -0.043066606 -23.617359 -4.6300304e-16 -1.9168677
0.85250542 -0.05 -0.043574236 -23.388323 -4.5491768e-16 -1.8766604
0.84624811 -0.05 -0.044076209 -23.162772 -3.6078618e-16 -1.8373575
0.83999035 -0.05 -0.044572511 -22.936998 7.8735852e-16 -1.798513
0.83373214 -0.05 -0.045063106 -22.705799 8.4328836e-17 -1.7600231
0.8274735 -0.05 -0.04554817 -22.467289 2.0447283e-16 -1.721801
0.82121443 -0.05 -0.046027663 -22.222448 -1.3948081e-16 -1.6827992
0.81495493 -0.05 -0.04650154 -21.978753 -5.1869831e-16 -1.6445466
0.80869501 -0.05 -0.046969879 -21.742601 8.6314657e-17 -1.6069723
0.80243468 -0.05 -0.04743269 -21.515372 -1.5669374e-16 -1.5707721
0.79617395 -0.05 -0.047890008 -21.294348 -3.0298072e-16 -1.5354551
0.78991282 -0.05 -0.048341784 -21.074722 -1.1071618e-16 -1.50102
0.7836513 -0.05 -0.048788107 -20.849731 4.6328977e-16 -1.4670714
0.77738939 -0.05 -0.049228941 -20.611128 -4.8272282e-16 -1.4324295
0.77112709 -0.05 -0.049664257 -20.359696 -2.7178577e-17 -1.3973541
0.76486441 -0.05 -0.050094113 -20.107949 -4.0232162e-16 -1.3622249
0.75860136 -0.05 -0.050518497 -19.864095 -5.1079934e-16 -1.3278504
0.75233794 -0.05 -0.050937398 -19.629429 7.2747725e-16 -1.2945474
0.74607415 -0.05 -0.05135079 -19.401004 3.2055682e-16 -1.2623468
0.73981001 -0.05 -0.051758655 -19.169277 -2.9183763e-16 -1.2309073
0.7335455 -0.05 -0.05216098 -18.915733 2.6722001e-16 -1.1990504
0.72728065 -0.05 -0.05255773 -18.638021 1.4782974e-17 -1.1659046
0.72101544 -0.05 -0.052948938 -18.357586 9.1698425e-18 -1.1327494
0.71474989 -0.05 -0.053334634 -18.080505 2.3477184e-16 -1.0998773
0.70848398 -0.05 -0.053714643 -17.803804 2.3523606e-16 -1.0671195
0.70221775 -0.05 -0.054089017 -17.527916 -1.0250719e-15 -1.03541
0.69595117 -0.05 -0.054457722 -17.252996 -1.7675123e-16 -1.0035184
0.68968427 -0.05 -0.054820662 -16.979659 -1.1289009e-16 -0.97259208
0.68341703 -0.05 -0.055177897 -16.709179 4.3166854e-16 -0.94183337
0.67714946 -0.05 -0.055529327 -16.442088 -3.4251526e-16 -0.91122828
0.67088157 -0.05 -0.055874963 -16.179352 4.7745762e-18 -0.88111249
0.66461335 -0.05 -0.056214689 -15.91836 3.3174931e-16 -0.851293
0.65834482 -0.05 -0.056548403 -15.658643 8.000494e-17 -0.82217243
0.65207598 -0.05 -0.056876192 -15.401041 -4.0250286e-16 -0.79367711
0.64580682 -0.05 -0.05719797 -15.144937 -3.606054e-17 -0.76543057
0.63953734 -0.05 -0.057513569 -14.889076 -1.1946999e-17 -0.73759003
0.63326756 -0.05 -0.057822957 -14.632465 -3.7615613e-16 -0.71021248
0.62699748 -0.05 -0.058126136 -14.374259 1.7343333e-16 -0.68324732
0.62072709 -0.05 -0.058422968 -14.116407 3.5695078e-16 -0.65663613
0.6144564 -0.05 -0.058713371 -13.862329 3.9663615e-16 -0.6307131
0.60818542 -0.05 -0.058997338 -13.61246 -2.1451215e-16 -0.60527839
0.60191414 -0.05 -0.059274728 -13.367088 2.5784406e-17 -0.5803549
0.59564257 -0.05 -0.059545468 -13.126373 1.4554652e-16 -0.55609469
0.58937071 -0.05 -0.059809474 -12.890623 3.881693e-18 -0.53215689
0.58309857 -0.05 -0.060066655 -12.661515 3.3482405e-16 -0.50875766
0.57682614 -0.05 -0.060316894 -12.440649 1.458856e-16 -0.48579424
0.57055344 -0.05 -0.060560049 -12.229699 1.256011e-17 -0.46358175
0.56428047 -0.05 -0.060796085 -12.03028 -8.2884401e-19 -0.44220418
0.55800724 -0.05 -0.061024882 -11.840154 -1.9664146e-16 -0.42145731
0.55173373 -0.05 -0.061246277 -11.656262 1.4164494e-17 -0.40120932
0.54545997 -0.05 -0.061460199 -11.477424 -2.9283757e-16 -0.38139534
0.53918595 -0.05 -0.061666485 -11.303008 2.4209261e-16 -0.36176494
0.53291167 -0.05 -0.061864998 -11.132425 7.6045566e-17 -0.34258097
0.52663716 -0.05 -0.062055664 -10.966291 -9.345038e-17 -0.32365329
0.5203624 -0.05 -0.062238312 -10.804038 3.0068038e-16 -0.30497159
0.51408742 -0.05 -0.062412803 -10.645595 -1.6782172e-16 -0.28656022
0.50781221 -0.05 -0.062578966 -10.490571 3.4087795e-16 -0.26836514
0.50153677 -0.05 -0.062736664 -10.339309 7.3335651e-17 -0.25049276
0.49526114 -0.05 -0.062885775 -10.191781 -8.4804729e-17 -0.23280573
0.4889853 -0.05 -0.0630261 -10.047757 -2.0716995e-16 -0.21529295
0.48270926 -0.05 -0.063157437 -9.9067886 7.4561785e-18 -0.19797992
0.47643304 -0.05 -0.063279662 -9.7693372 -1.1303752e-16 -0.18096595
0.47015665 -0.05 -0.063392636 -9.6354829 7.4870082e-17 -0.16405688
0.46388009 -0.05 -0.063496108 -9.5046827 6.0725506e-18 -0.14724415
0.45760338 -0.05 -0.063589865 -9.3766157 -9.0303009e-17 -0.13063649
0.45132653 -0.05 -0.063673746 -9.2518484 2.9804663e-17 -0.11421425
0.44504956 -0.05 -0.063747567 -9.1302085 4.6235406e-17 -0.097947269
0.43877247 -0.05 -0.063811102 -9.0116125 7.7063058e-17 -0.081877952
0.43249529 -0.05 -0.063864112 -8.8956816 -9.2509771e-17 -0.066221296
0.42621802 -0.05 -0.063906385 -8.782644 3.9651498e-17 -0.050548845
0.41994068 -0.05 -0.063937726 -8.6724687 3.3995361e-17 -0.034041772
0.41366331 -0.05 -0.063957883 -8.565047 1.9374576e-17 -0.017274872
0.4073859 -0.05 -0.06396658 -8.4600808 4.5837165e-18 -0.001231104
0.4011085 -0.05 -0.063963594 -8.3580056 4.1421788e-19 0.01508632
0.3948311 -0.05 -0.063948639 -8.2586102 -2.2972282e-18 0.031765487
0.38855376 -0.05 -0.063921406 -8.1616682 3.0105138e-17 0.046936723
0.38227648 -0.05 -0.063881682 -8.0672912 5.2395461e-18 0.062324806
0.37599928 -0.05 -0.063829228 -7.9760248 -4.6453652e-17 0.077928801
0.36972222 -0.05 -0.063763644 -7.8871145 -2.0879473e-17 0.093707734
0.36344531 -0.05 -0.063684612 -7.800156 -3.8792695e-17 0.10942682
0.35716858 -0.05 -0.063591891 -7.7156703 6.6937653e-17 0.12516502
0.35089209 -0.05 -0.063485147 -7.6339512 -5.889584e-17 0.14115647
0.34461585 -0.05 -0.063364023 -7.5546593 -1.3128665e-16 0.15731523
0.33833991 -0.05 -0.063228133 -7.4777639 2.1532026e-16 0.17361247
0.33206431 -0.05 -0.063077148 -7.4035939 2.788369e-16 0.18996954
0.32578912 -0.05 -0.062910682 -7.332867 2.413622e-16 0.20661086
0.31951437 -0.05 -0.062728309 -7.2650243 -2.9863707e-16 0.22338792
0.3132401 -0.05 -0.062529643 -7.2001326 7.5972059e-17 0.24045496
0.30696639 -0.05 -0.062314271 -7.143272 1.3422721e-16 0.25804193
0.30069329 -0.05 -0.06208176 -7.1533696 2.016284e-16 0.27809609
0.29952598 -0.05 0.058067252 -7.1276239 -3.8316774e-16 0.26657001
0.29389275 -0.05 0.058279576 -7.3584574 -8.9614869e-17 0.25603821
0.28834007 -0.05 0.058474283 -7.5154566 6.8738585e-17 0.24237403
0.28286683 -0.05 0.058651631 -7.6749222 1.8994748e-17 0.22697769
0.27747194 -0.05 0.058811931 -7.8323952 -1.9443523e-16 0.21058089
0.27215428 -0.05 0.058955523 -7.9894803 -2.1834008e-16 0.19303934
0.26691281 -0.05 0.059082728 -8.1457662 -5.3500978e-17 0.17446272
0.26174646 -0.05 0.05919383 -8.3012093 -2.8922781e-17 0.15472464
0.2566542 -0.05 0.059289162 -8.45553 -4.8868997e-17 0.13409081
0.25163499 -0.05 0.059369011 -8.6092324 3.9794564e-17 0.11246904
0.24668782 -0.05 0.059433604 -8.7613762 -1.0034626e-17 0.090650039
0.24181171 -0.05 0.059483258 -8.9121509 -5.5037793e-17 0.067001638
0.23700568 -0.05 0.059518256 -9.0614691 -1.3687202e-18 0.039599229
0.23226874 -0.05 0.059538901 -9.2093619 1.4721139e-17 0.012487324
0.22759995 -0.05 0.059545476 -9.3557919 -1.9958296e-18 -0.016558557
0.22299837 -0.05 0.05953819 -9.5011156 3.2410256e-18 -0.047198717
0.21846306 -0.05 0.059517345 -9.6457095 -2.3621481e-17 -0.076641561
0.21399314 -0.05 0.059483204 -9.7896158 1.9353467e-17 -0.10686079
0.20958767 -0.05 0.059435932 -9.9317913 -1.4445352e-16 -0.13850924
0.20524578 -0.05 0.059375834 -10.072492 -1.1216303e-16 -0.1713966
0.20096661 -0.05 0.059303158 -10.211453 -8.575517e-17 -0.20620023
0.19674928 -0.05 0.059218171 -10.349009 -1.54372e-16 -0.24214422
0.19259296 -0.05 0.059121111 -10.485485 -5.2096683e-17 -0.27959381
0.18849678 -0.05 0.059012097 -10.619605 -1.7937705e-16 -0.31826679
0.18445995 -0.05 0.058891414 -10.75165 2.302662e-16 -0.35794545
0.18048165 -0.05 0.058759289 -10.882024 2.7536082e-16 -0.39908397
0.17656107 -0.05 0.058615914 -11.010399 -1.5524256e-16 -0.44125932
0.17269743 -0.05 0.058461529 -11.137812 -5.1706759e-17 -0.48488536
0.16888995 -0.05 0.058296329 -11.263966 3.1579049e-17 -0.52978216
0.16513786 -0.05 0.05812048 -11.388682 1.3974234e-16 -0.57612902
0.16144042 -0.05 0.057934146 -11.511398 -2.4418888e-17 -0.62356432
0.15779687 -0.05 0.057737582 -11.632921 5.1784641e-17 -0.67238693
0.15420649 -0.05 0.05753093 -11.752647 2.0239016e-16 -0.72267872
0.15066857 -0.05 0.057314363 -11.870389 -1.760273e-16 -0.77418421
0.14718238 -0.05 0.057088059 -11.986482 -8.3200688e-17 -0.82727356
0.14374723 -0.05 0.056852139 -12.100288 1.6471086e-16 -0.88164123
0.14036244 -0.05 0.056606792 -12.212098 4.7046291e-18 -0.937403
0.13702732 -0.05 0.056352159 -12.321623 1.9690407e-16 -0.99456405
0.13374121 -0.05 0.056088437 -12.42903 7.7938016e-18 -1.0530445
0.13050346 -0.05 0.055815762 -12.534568 1.5198205e-16 -1.1133566
0.12731342 -0.05 0.055534188 -12.637115 -1.4949848e-16 -1.1748777
0.12417045 -0.05 0.055243922 -12.73784 1.5712764e-16 -1.2377994
0.12107392 -0.05 0.054945111 -12.836843 -1.7968045e-16 -1.3026126
0.11802323 -0.05 0.054637795 -12.932896 4.3090738e-16 -1.3689338
0.11501777 -0.05 0.05432207 -13.02616 -5.3916823e-17 -1.4367132
0.11205695 -0.05 0.053998095 -13.116927 -5.2840132e-16 -1.5061884
0.10914019 -0.05 0.053665923 -13.204037 7.2580839e-16 -1.5772168
0.10626691 -0.05 0.053325669 -13.28739 2.6089359e-16 -1.6493254
0.10343654 -0.05 0.052977513 -13.368109 -5.0028779e-16 -1.723631
0.10064852 -0.05 0.052621416 -13.44427 -1.4512656e-16 -1.7996211
0.097902337 -0.05 0.052257455 -13.516017 2.4765514e-16 -1.8767961
0.095197428 -0.05 0.051885792 -13.584743 2.8224112e-16 -1.9562976
0.092533291 -0.05 0.051506363 -13.648471 -4.4506356e-16 -2.0374431
0.08990941 -0.05 0.051119253 -13.707745 -2.0446026e-16 -2.1198451
0.087325278 -0.05 0.050724546 -13.764086 3.6987148e-16 -2.2045903
0.084780399 -0.05 0.050322286 -13.817645 -6.0598328e-16 -2.2912887
0.08227429 -0.05 0.049912535 -13.869306 1.4064085e-16 -2.381095
0.079806498 -0.05 0.049495202 -13.917373 3.6874147e-16 -2.4730384
0.077376566 -0.05 0.049070298 -13.96268 1.0609995e-15 -2.566911
0.07498403 -0.05 0.048637911 -14.007577 3.9029109e-16 -2.663496
0.072628446 -0.05 0.048198076 -14.050236 -1.1958453e-17 -2.7634265
0.070309407 -0.05 0.047750693 -14.088587 4.1610973e-16 -2.8660738
0.068026497 -0.05 0.047295738 -14.12199 -2.1018288e-16 -2.9712658
0.065779309 -0.05 0.046833221 -14.150312 5.6490707e-16 -3.0798878
0.06356746 -0.05 0.046363062 -14.171891 4.569888e-16 -3.1919784
0.06139058 -0.05 0.045885191 -14.187479 -1.2707224e-16 -3.307937
0.059248302 -0.05 0.045399556 -14.199207 7.6189841e-16 -3.4287395
0.057140283 -0.05 0.044906069 -14.210328 -5.7373255e-16 -3.555236
0.055066171 -0.05 0.044404707 -14.225117 4.7032507e-16 -3.6891297
0.05302567 -0.05 0.043895291 -14.244552 -4.9829069e-16 -3.8305902
0.051018484 -0.05 0.043377679 -14.267027 2.9491394e-16 -3.9785639
0.049044307 -0.05 0.042851816 -14.298416 -6.2169977e-16 -4.1357756
0.04710288 -0.05 0.042317528 -14.3327 -3.0338004e-16 -4.3013935
0.04519396 -0.05 0.041774634 -14.368537 -7.6009494e-17 -4.4762293
0.043317346 -0.05 0.041222868 -14.402065 -3.5010497e-16 -4.6589033
0.041472831 -0.05 0.040662041 -14.431565 3.3472658e-16 -4.8495441
0.039660212 -0.05 0.040092011 -14.455839 -5.8824715e-16 -5.0496651
0.037879348 -0.05 0.039512495 -14.471386 -5.8063537e-17 -5.2591258
0.036130125 -0.05 0.03892319 -14.473038 -2.7508193e-16 -5.4772098
0.034412459 -0.05 0.038323784 -14.457609 -1.4364143e-16 -5.7042396
0.032726285 -0.05 0.037713964 -14.421014 -1.3406492e-17 -5.9406651
0.031071588 -0.05 0.037093378 -14.361944 1.3046862e-16 -6.1876894
0.029448407 -0.05 0.036461591 -14.277499 5.4359396e-16 -6.4449466
0.027856797 -0.05 0.03581822 -14.169616 5.5829266e-16 -6.7148441
0.026296893 -0.05 0.035162774 -14.039915 7.6051025e-16 -6.9980919
0.024768887 -0.05 0.034494731 -13.889613 -6.9136217e-16 -7.295112
0.023273023 -0.05 0.033813571 -13.722003 2.4438025e-16 -7.6061662
0.021809659 -0.05 0.033118654 -13.538516 -3.0375508e-16 -7.9291394
0.020379184 -0.05 0.032409395 -13.340013 8.4536384e-16 -8.2642149
0.018982149 -0.05 0.03168505 -13.12808 2.0470623e-16 -8.6100149
0.017619185 -0.05 0.030944837 -12.898477 -1.2068955e-16 -8.9642553
0.01629102 -0.05 0.030187987 -12.643828 -6.8713192e-16 -9.3175735
0.014998567 -0.05 0.029413621 -12.352816 -8.4865386e-16 -9.6647606
0.013742922 -0.05 0.028620839 -12.017606 6.7773026e-16 -9.9990096
0.012525371 -0.05 0.027808701 -11.637579 3.2342558e-16 -10.315267
0.011347427 -0.05 0.026976154 -11.202547 -9.4912121e-16 -10.597709
0.010210798 -0.05 0.026122081 -10.709299 4.3793582e-16 -10.843264
0.0091175165 -0.05 0.02524555 -10.149756 -2.9813798e-16 -11.043123
0.0080700368 -0.05 0.024345629 -9.5137343 3.4019647e-16 -11.175219
0.0070710475 -0.05 0.023421125 -8.800404 2.2263703e-17 -11.213757
0.0061235762 -0.05 0.022471194 -8.01491 -4.762862e-16 -11.154122
0.0052313462 -0.05 0.021495525 -7.1707314 -1.9448884e-16 -10.976075
0.0043982103 -0.05 0.020493592 -6.2708113 -3.6085543e-16 -10.654824
0.0036282597 -0.05 0.019465411 -5.3394235 4.1971668e-16 -10.175452
0.0029262814 -0.05 0.018412114 -4.4031896 -2.4036977e-17 -9.5299631
0.0022969042 -0.05 0.017334992 -3.4900809 3.0596246e-16 -8.7126501
0.001744564 -0.05 0.016236371 -2.6310716 1.6958022e-16 -7.7343837
0.001273344 -0.05 0.015120129 -1.8557761 -2.105418e-16 -6.6261046
0.00088649583 -0.05 0.01399054 -1.1957509 -3.8051914e-17 -5.4333823
0.00058598094 -0.05 0.012852837 -0.71618817 1.9589844e-16 -4.2124215
0.00037212268 -0.05 0.011713069 -0.40961915 -6.1884313e-17 -3.0141124
0.00024366588 -0.05 0.010577357 -0.22865961 -2.2930316e-17 -1.890326
0.99631258 -0.05 -0.029460173 -0.023586823 -3.3014074e-17 0.22379126
0.99014028 -0.05 -0.028316226 0.0098190413 -7.2670944e-16 -7.9446357e-05
0.9839667 -0.05 -0.027179219 0.010285168 5.2375398e-16 -0.0013299123
0.97779184 -0.05 -0.026049128 0.0024267199 5.5745727e-16 -0.0001314114
0.97161575 -0.05 -0.024925848 0.0066710487 2.3217743e-17 -0.00080284348
0.96543845 -0.05 -0.02380922 0.0045468428 6.2649485e-17 -0.00046653613
0.95925995 -0.05 -0.022699262 0.0056688473 3.3242329e-16 -0.00068848575
0.95308026 -0.05 -0.021595912 0.0051438115 6.8637889e-16 -0.00059876076
0.94689943 -0.05 -0.020499017 0.005538787 2.0237879e-16 -0.00065747491
0.94071747 -0.05 -0.01940849 0.0054605653 -1.0476825e-16 -0.00062239841
0.93453439 -0.05 -0.01832433 0.0056699204 1.3553109e-15 -0.00064641284
0.92835021 -0.05 -0.017246475 0.0058476433 9.2647264e-16 -0.00063996149
0.92216494 -0.05 -0.016174851 0.0060657859 5.9145822e-16 -0.00066320311
0.9159786 -0.05 -0.015109422 0.0063095374 8.6550279e-16 -0.00064870365
0.90979122 -0.05 -0.01405004 0.0066008244 9.8159264e-16 -0.00066820349
0.90360282 -0.05 -0.012996706 0.0071141525 -4.4673027e-16 -0.0006470009
0.89741339 -0.05 -0.011949389 0.0085736184 4.9404585e-16 -0.00079435309
0.89122298 -0.05 -0.010907955 0.0088607273 -4.2203765e-16 -0.00094516698
0.88503157 -0.05 -0.0098723891 0.0094495044 -2.58756e-17 -0.0011236861
0.87883917 -0.05 -0.0088427499 0.0090144054 1.4191084e-16 -0.0010354679
0.87264582 -0.05 -0.0078188998 0.0089937383 9.2742634e-16 -0.0010355942
0.86645153 -0.05 -0.0068007714 0.008247323 -9.3504952e-16 -0.00091226007
0.86025629 -0.05 -0.0057883934 0.0079424274 1.8170452e-16 -0.0008020838
0.85406013 -0.05 -0.00478168 0.0071680327 5.0689708e-16 -0.00063733281
0.84786306 -0.05 -0.0037805692 0.0060404785 -1.9750401e-16 -0.00044502912
0.84166508 -0.05 -0.0027850748 0.0045215631 -2.7239067e-16 -0.00018776782
0.83546621 -0.05 -0.0017952332 0.0025988565 8.1133892e-16 0.00012748297
0.82926646 -0.05 -0.00081086982 0.00013567566 1.0238026e-15 0.00051630129
0.82306583 -0.05 0.00016797498 -0.0029352792 -7.7802002e-16 0.00094295855
0.81686433 -0.05 0.0011412548 -0.006116735 3.5096056e-16 0.0014112328
0.81066197 -0.05 0.0021090487 -0.0095069976 -4.3812169e-16 0.0019463731
0.80445876 -0.05 0.0030713658 -0.013436516 3.5874842e-16 0.0025519322
0.7982547 -0.05 0.0040282378 -0.018012495 -9.9030723e-16 0.0032442206
0.7920498 -0.05 0.0049796192 -0.023210442 5.3191351e-16 0.0040300247
0.78584408 -0.05 0.0059255962 -0.029238125 5.7223892e-16 0.0049255385
0.77963753 -0.05 0.0068661335 -0.036093374 7.94397e-16 0.0059315431
0.77343015 -0.05 0.0078011996 -0.043812267 -5.9341635e-17 0.0070445694
0.76722196 -0.05 0.008730855 -0.052308708 1.0244317e-16 0.0082744218
0.76101295 -0.05 0.0096550853 -0.062102544 -1.6954938e-16 0.0096661341
0.75480314 -0.05 0.01057388 -0.073303147 1.2200722e-17 0.011214536
0.74859253 -0.05 0.011487212 -0.086081265 -2.1232157e-16 0.012963129
0.74238111 -0.05 0.012395064 -0.10036176 5.5127169e-16 0.014910599
0.7361689 -0.05 0.013297423 -0.11632473 -7.1904077e-16 0.017077348
0.72995588 -0.05 0.014194253 -0.13380522 -8.45882e-16 0.019418198
0.72374208 -0.05 0.015085587 -0.15291312 1.0088911e-16 0.022009493
0.71752749 -0.05 0.015971453 -0.1742838 -7.4308845e-16 0.024861839
0.7113121 -0.05 0.016851679 -0.19824711 -1.2160344e-15 0.028014108
0.70509591 -0.05 0.017726316 -0.22420637 -2.6906718e-16 0.031371113
0.69887894 -0.05 0.018595327 -0.25227779 2.8073737e-16 0.034978946
0.69266118 -0.05 0.01945862 -0.28222823 -9.7853201e-16 0.038796154
0.68644263 -0.05 0.020316252 -0.3146754 -3.6915148e-16 0.042907285
0.68022329 -0.05 0.021168123 -0.34919033 -7.9888157e-16 0.047210094
0.67400316 -0.05 0.022014245 -0.38600627 6.7130544e-16 0.05175946
0.66778224 -0.05 0.022854502 -0.42488814 9.0917203e-17 0.056543066
0.66156052 -0.05 0.023688793 -0.466584 7.3791737e-16 0.061646704
0.655338 -0.05 0.024517202 -0.51075523 -7.0214432e-16 0.066925486
0.6491147 -0.05 0.025339644 -0.55749593 -1.9586131e-16 0.072456473
0.6428906 -0.05 0.026155952 -0.60649231 1.7319469e-17 0.078186295
0.63666568 -0.05 0.026966094 -0.65833601 -3.5188396e-16 0.084203212
0.63043996 -0.05 0.027770071 -0.71288037 5.1381029e-16 0.090407561
0.62421344 -0.05 0.028567747 -0.77007696 -7.9559308e-16 0.096845839
0.61798611 -0.05 0.029359036 -0.82961158 -8.5797833e-16 0.10348775
0.61175795 -0.05 0.030143936 -0.8922186 1.9573513e-16 0.11039481
0.60552899 -0.05 0.030922303 -0.95728801 1.7465776e-16 0.11740737
0.59929921 -0.05 0.031694063 -1.025096 2.6089845e-16 0.12463339
0.59306859 -0.05 0.032459135 -1.0957257 2.0601004e-16 0.13203892
0.58683714 -0.05 0.033217426 -1.1690022 -5.4134452e-16 0.13961641
0.58060486 -0.05 0.03396882 -1.2445294 1.3081041e-17 0.14726773
0.57437174 -0.05 0.034713175 -1.3228876 -4.007151e-16 0.15523993
0.56813778 -0.05 0.035450456 -1.4084875 -8.9743974e-16 0.16393092
0.56190297 -0.05 0.036180541 -1.5037209 -3.6152586e-16 0.1730104
0.5556673 -0.05 0.036903271 -1.6011577 8.3895048e-16 0.18199813
0.54943078 -0.05 0.037618571 -1.7004971 6.6236894e-16 0.19124915
0.54319338 -0.05 0.038326281 -1.8018309 -3.6973169e-16 0.20041608
0.53695512 -0.05 0.039026262 -1.9054444 1.2873803e-16 0.20956772
0.53071599 -0.05 0.039718442 -2.0113662 1.5293762e-16 0.21865715
0.52447598 -0.05 0.040402649 -2.1189917 -1.6453006e-16 0.22762975
0.51823508 -0.05 0.041078742 -2.2283492 3.6239511e-16 0.23646587
0.5119933 -0.05 0.041746553 -2.339621 -1.6592154e-16 0.24514626
0.50575061 -0.05 0.042405944 -2.4528905 2.6420524e-16 0.25368442
0.49950703 -0.05 0.043056791 -2.5683641 -1.2629979e-16 0.26205011
0.49326255 -0.05 0.043698897 -2.6856792 -8.8547773e-16 0.27021555
0.48701715 -0.05 0.04433206 -2.8043747 -9.7682887e-18 0.27812056
0.48077084 -0.05 0.044956154 -2.9245798 -3.7471559e-16 0.28578305
0.47452362 -0.05 0.045571041 -3.0469877 4.0898063e-16 0.29315934
0.46827547 -0.05 0.04617647 -3.171582 5.2025489e-16 0.30025668
0.4620264 -0.05 0.046772228 -3.2979397 -2.5966163e-16 0.30705182
0.45577639 -0.05 0.047358151 -3.4257462 -3.3611495e-16 0.31351053
0.44952546 -0.05 0.047934057 -3.555062 -2.3338015e-17 0.31956494
0.44327358 -0.05 0.048499719 -3.6862118 -4.1996303e-16 0.32520782
0.43702077 -0.05 0.049054897 -3.8194406 -4.6657653e-16 0.33043604
0.43076702 -0.05 0.049599381 -3.9547159 5.6721151e-16 0.33526757
0.42451233 -0.05 0.050132971 -4.091883 1.5169802e-16 0.33963525
0.4182567 -0.05 0.050655418 -4.2305825 -1.9193081e-16 0.34346879
0.41200012 -0.05 0.051166444 -4.3706059 5.1111452e-16 0.3467306
0.40574261 -0.05 0.051665823 -4.512594 2.1500078e-16 0.34943846
0.39948415 -0.05 0.052153271 -4.6569422 4.3869183e-17 0.35151262
0.39322476 -0.05 0.052628478 -4.8031422 -1.0343285e-16 0.352996
0.38696444 -0.05 0.053091228 -4.9511601 -3.3043562e-16 0.35384932
0.38070318 -0.05 0.05354128 -5.1010492 2.9693046e-16 0.35397045
0.37444099 -0.05 0.053978236 -5.2524176 -1.4892695e-16 0.3532364
0.36817789 -0.05 0.054401774 -5.4055276 -1.0294218e-16 0.3517785
0.36191388 -0.05 0.054811654 -5.5612958 -3.1003628e-16 0.3495035
0.35564897 -0.05 0.055207535 -5.7191154 -7.3099741e-17 0.34635639
0.34938316 -0.05 0.055589062 -5.8785347 5.3471699e-18 0.3422291
0.34311648 -0.05 0.055955846 -6.0393556 6.3890547e-16 0.33707865
0.33684894 -0.05 0.056307558 -6.2020219 2.5261183e-16 0.33093435
0.33058055 -0.05 0.056643804 -6.3666497 -1.7609329e-16 0.32361668
0.32431132 -0.05 0.056964161 -6.5333081 1.6959109e-16 0.31516874
0.31804128 -0.05 0.057268238 -6.7030986 -3.7595941e-16 0.30564537
0.31177045 -0.05 0.057555617 -6.8754817 -1.3709298e-16 0.29526052
0.30549887 -0.05 0.057825864 -6.983606 -1.5154761e-17 0.28065238
