# yPlus  FACE_DATA 448
# x y z  yPlus
0.29472025 -0.05 -0.061844388 23.067278
0.28908808 -0.05 -0.061605225 22.685429
0.28353764 -0.05 -0.061354949 22.526729
0.27806776 -0.05 -0.061093727 22.359854
0.27267734 -0.05 -0.06082178 22.202926
0.26736525 -0.05 -0.060539361 22.051754
0.26213041 -0.05 -0.060246702 21.907498
0.25697174 -0.05 -0.059944005 21.769032
0.25188818 -0.05 -0.059631518 21.637069
0.24687868 -0.05 -0.059309444 21.511255
0.24194221 -0.05 -0.058977926 21.390298
0.23707776 -0.05 -0.058637205 21.273967
0.23228434 -0.05 -0.058287483 21.162887
0.22756095 -0.05 -0.057928983 21.056081
0.2229066 -0.05 -0.057561911 20.954212
0.21832036 -0.05 -0.057186402 20.85676
0.21380127 -0.05 -0.056802682 20.764128
0.2093484 -0.05 -0.056410938 20.67712
0.20496086 -0.05 -0.056011266 20.594301
0.2006377 -0.05 -0.055603896 20.515826
0.19637807 -0.05 -0.055189008 20.441995
0.19218107 -0.05 -0.054766797 20.372661
0.18804583 -0.05 -0.054337433 20.308185
0.18397152 -0.05 -0.053900968 20.246641
0.1799573 -0.05 -0.053457621 20.188494
0.17600233 -0.05 -0.053007551 20.134496
0.17210581 -0.05 -0.052550887 20.083613
0.16826691 -0.05 -0.052087806 20.037031
0.16448485 -0.05 -0.051618437 19.99416
0.16075887 -0.05 -0.051142888 19.955291
0.15708821 -0.05 -0.050661259 19.919366
0.15347208 -0.05 -0.050173746 19.88689
0.14990975 -0.05 -0.049680433 19.857934
0.1464005 -0.05 -0.049181435 19.831333
0.14294361 -0.05 -0.04867687 19.808218
0.13953836 -0.05 -0.048166806 19.786879
0.13618405 -0.05 -0.047651373 19.76801
0.13288001 -0.05 -0.047130661 19.751784
0.12962554 -0.05 -0.04660481 19.738665
0.12642 -0.05 -0.046073906 19.728314
0.12326272 -0.05 -0.045537948 19.719126
0.12015306 -0.05 -0.044997093 19.711661
0.11709038 -0.05 -0.044451437 19.707913
0.11407406 -0.05 -0.043900971 19.706195
0.11110351 -0.05 -0.043345745 19.707121
0.10817811 -0.05 -0.042785865 19.710669
0.10529728 -0.05 -0.042221341 19.716537
0.10246045 -0.05 -0.041652241 19.721629
0.099667013 -0.05 -0.041078698 19.728351
0.096916442 -0.05 -0.04050063 19.734889
0.094208188 -0.05 -0.039918069 19.740551
0.091541697 -0.05 -0.039331134 19.748999
0.08891647 -0.05 -0.038739722 19.760206
0.086331983 -0.05 -0.038143875 19.771586
0.083787725 -0.05 -0.037543635 19.786185
0.0812832 -0.05 -0.03693901 19.80023
0.078817919 -0.05 -0.036330018 19.817484
0.07639144 -0.05 -0.035716536 19.833807
0.074003305 -0.05 -0.035098537 19.849582
0.071653044 -0.05 -0.034476071 19.866003
0.069340214 -0.05 -0.033849138 19.884413
0.067064414 -0.05 -0.033217606 19.901516
0.064825234 -0.05 -0.032581419 19.915658
0.062622267 -0.05 -0.031940551 19.928824
0.060455137 -0.05 -0.031294895 19.942243
0.05832348 -0.05 -0.030644349 19.95638
0.056226936 -0.05 -0.029988833 19.971615
0.05416517 -0.05 -0.029328233 19.988298
0.052137834 -0.05 -0.028662496 20.00536
0.050144644 -0.05 -0.02799142 20.025421
0.048185318 -0.05 -0.027314841 20.040786
0.046259555 -0.05 -0.026632679 20.056125
0.044367112 -0.05 -0.025944738 20.068008
0.042507759 -0.05 -0.025250824 20.080133
0.04068132 -0.05 -0.024550649 20.09244
0.0388876 -0.05 -0.023844011 20.098232
0.037126413 -0.05 -0.023130752 20.095685
0.035397636 -0.05 -0.022410579 20.088404
0.033701184 -0.05 -0.021683181 20.078532
0.032036994 -0.05 -0.02094824 20.077964
0.030405031 -0.05 -0.020205438 20.092087
0.028805304 -0.05 -0.019454423 20.116293
0.027237887 -0.05 -0.018694765 20.129749
0.025702869 -0.05 -0.017926087 20.119392
0.024200421 -0.05 -0.017147911 20.082712
0.022730777 -0.05 -0.016359729 20.007342
0.02129422 -0.05 -0.015561045 19.906884
0.019891162 -0.05 -0.01475125 19.808615
0.018522034 -0.05 -0.013929791 19.734629
0.017187445 -0.05 -0.013095969 19.682285
0.015888089 -0.05 -0.012249058 19.663714
0.014624752 -0.05 -0.011388347 19.703754
0.013398414 -0.05 -0.010513035 19.800473
0.012210239 -0.05 -0.0096223115 19.97563
0.011061584 -0.05 -0.0087153417 20.252701
0.0099540443 -0.05 -0.0077911988 20.582626
0.0088894096 -0.05 -0.0068489054 20.87415
0.0078697794 -0.05 -0.0058876946 21.059358
0.0068976764 -0.05 -0.0049068333 21.10426
0.0059758756 -0.05 -0.0039053493 20.994232
0.0051074623 -0.05 -0.0028826422 20.710931
0.0042961729 -0.05 -0.0018387011 20.230461
0.0035458899 -0.05 -0.0007733088 19.539129
0.0028606899 -0.05 0.0003131907 18.573838
0.0022452544 -0.05 0.0014192862 17.301028
0.0017040935 -0.05 0.0025433198 15.671083
0.0012414432 -0.05 0.003682619 13.580498
0.000861063 -0.05 0.0048329909 10.838566
0.00056585215 -0.05 0.0059899144 7.8535331
0.00035734704 -0.05 0.0071480175 4.1034332
0.00023538585 -0.05 0.0083012442 5.2317878
0.00019822773 -0.05 0.0094435946 8.7479647
0.99627656 -0.05 -0.030358803 35.115941
0.99003251 -0.05 -0.031005137 45.35305
0.98378774 -0.05 -0.031644448 45.486973
0.97754226 -0.05 -0.032276765 45.28321
0.97129608 -0.05 -0.032902194 45.166461
0.96504924 -0.05 -0.033520896 45.016088
0.95880172 -0.05 -0.034132852 44.865139
0.95255355 -0.05 -0.034738127 44.705052
0.94630477 -0.05 -0.035336878 44.537575
0.94005536 -0.05 -0.035929187 44.362497
0.93380536 -0.05 -0.036515063 44.181028
0.92755475 -0.05 -0.037094565 43.995531
0.92130356 -0.05 -0.037667769 43.808707
0.9150518 -0.05 -0.038234712 43.621874
0.90879949 -0.05 -0.038795546 43.435546
0.90254664 -0.05 -0.039350267 43.247827
0.89629326 -0.05 -0.03989891 43.057295
0.89003935 -0.05 -0.040441609 42.862265
0.88378493 -0.05 -0.040978378 42.660864
0.87753 -0.05 -0.041509162 42.453026
0.87127457 -0.05 -0.042034098 42.241841
0.86501866 -0.05 -0.042553256 42.031762
0.85876228 -0.05 -0.043066606 41.82515
0.85250542 -0.05 -0.043574236 41.622023
0.84624811 -0.05 -0.044076209 41.420802
0.83999035 -0.05 -0.044572511 41.218391
0.83373214 -0.05 -0.045063106 41.010216
0.8274735 -0.05 -0.04554817 40.79416
0.82121443 -0.05 -0.046027663 40.57145
0.81495493 -0.05 -0.04650154 40.348492
0.80869501 -0.05 -0.046969879 40.131156
0.80243468 -0.05 -0.04743269 39.920789
0.79617395 -0.05 -0.047890008 39.71507
0.78991282 -0.05 -0.048341784 39.509321
0.7836513 -0.05 -0.048788107 39.297405
0.77738939 -0.05 -0.049228941 39.071936
0.77112709 -0.05 -0.049664257 38.832956
0.76486441 -0.05 -0.050094113 38.592414
0.75860136 -0.05 -0.050518497 38.357837
0.75233794 -0.05 -0.050937398 38.130466
0.74607415 -0.05 -0.05135079 37.907638
0.73981001 -0.05 -0.051758655 37.680155
0.7335455 -0.05 -0.05216098 37.429935
0.72728065 -0.05 -0.05255773 37.154593
0.72101544 -0.05 -0.052948938 36.874434
0.71474989 -0.05 -0.053334634 36.595669
0.70848398 -0.05 -0.053714643 36.315302
0.70221775 -0.05 -0.054089017 36.033307
0.69595117 -0.05 -0.054457722 35.750399
0.68968427 -0.05 -0.054820662 35.466664
0.68341703 -0.05 -0.055177897 35.183814
0.67714946 -0.05 -0.055529327 34.902188
0.67088157 -0.05 -0.055874963 34.622606
0.66461335 -0.05 -0.056214689 34.342822
0.65834482 -0.05 -0.056548403 34.062055
0.65207598 -0.05 -0.056876192 33.781342
0.64580682 -0.05 -0.05719797 33.499992
0.63953734 -0.05 -0.057513569 33.216606
0.63326756 -0.05 -0.057822957 32.930165
0.62699748 -0.05 -0.058126136 32.639016
0.62072709 -0.05 -0.058422968 32.345346
0.6144564 -0.05 -0.058713371 32.053829
0.60818542 -0.05 -0.058997338 31.764796
0.60191414 -0.05 -0.059274728 31.478371
0.59564257 -0.05 -0.059545468 31.194628
0.58937071 -0.05 -0.059809474 30.914399
0.58309857 -0.05 -0.060066655 30.63968
0.57682614 -0.05 -0.060316894 30.372575
0.57055344 -0.05 -0.060560049 30.115302
0.56428047 -0.05 -0.060796085 29.870215
0.55800724 -0.05 -0.061024882 29.634195
0.55173373 -0.05 -0.061246277 29.404357
0.54545997 -0.05 -0.061460199 29.179007
0.53918595 -0.05 -0.061666485 28.95784
0.53291167 -0.05 -0.061864998 28.739564
0.52663716 -0.05 -0.062055664 28.525569
0.5203624 -0.05 -0.062238312 28.314881
0.51408742 -0.05 -0.062412803 28.107821
0.50781221 -0.05 -0.062578966 27.903253
0.50153677 -0.05 -0.062736664 27.702485
0.49526114 -0.05 -0.062885775 27.505198
0.4889853 -0.05 -0.0630261 27.311378
0.48270926 -0.05 -0.063157437 27.120035
0.47643304 -0.05 -0.063279662 26.93238
0.47015665 -0.05 -0.063392636 26.74831
0.46388009 -0.05 -0.063496108 26.567496
0.45760338 -0.05 -0.063589865 26.388742
0.45132653 -0.05 -0.063673746 26.213731
0.44504956 -0.05 -0.063747567 26.041703
0.43877247 -0.05 -0.063811102 25.873129
0.43249529 -0.05 -0.063864112 25.706987
0.42621802 -0.05 -0.063906385 25.544324
0.41994068 -0.05 -0.063937726 25.384776
0.41366331 -0.05 -0.063957883 25.228401
0.4073859 -0.05 -0.06396658 25.074094
0.4011085 -0.05 -0.063963594 24.923431
0.3948311 -0.05 -0.063948639 24.775658
0.38855376 -0.05 -0.063921406 24.6307
0.38227648 -0.05 -0.063881682 24.488579
0.37599928 -0.05 -0.063829228 24.350857
0.36972222 -0.05 -0.063763644 24.215803
0.36344531 -0.05 -0.063684612 24.083192
0.35716858 -0.05 -0.063591891 23.952762
0.35089209 -0.05 -0.063485147 23.826497
0.34461585 -0.05 -0.063364023 23.703023
0.33833991 -0.05 -0.063228133 23.583123
0.33206431 -0.05 -0.063077148 23.466429
0.32578912 -0.05 -0.062910682 23.355032
0.31951437 -0.05 -0.062728309 23.247444
0.3132401 -0.05 -0.062529643 23.144467
0.30696639 -0.05 -0.062314271 23.055316
0.30069329 -0.05 -0.06208176 23.190192
0.29952598 -0.05 0.058067252 22.845631
0.29389275 -0.05 0.058279576 23.204917
0.28834007 -0.05 0.058474283 23.341003
0.28286683 -0.05 0.058651631 23.477376
0.27747194 -0.05 0.058811931 23.608483
0.27215428 -0.05 0.058955523 23.737488
0.26691281 -0.05 0.059082728 23.863446
0.26174646 -0.05 0.05919383 23.987104
0.2566542 -0.05 0.059289162 24.107507
0.25163499 -0.05 0.059369011 24.226129
0.24668782 -0.05 0.059433604 24.341389
0.24181171 -0.05 0.059483258 24.454288
0.23700568 -0.05 0.059518256 24.564799
0.23226874 -0.05 0.059538901 24.672394
0.22759995 -0.05 0.059545476 24.777342
0.22299837 -0.05 0.05953819 24.880891
0.21846306 -0.05 0.059517345 24.982877
0.21399314 -0.05 0.059483204 25.083742
0.20958767 -0.05 0.059435932 25.182325
0.20524578 -0.05 0.059375834 25.279044
0.20096661 -0.05 0.059303158 25.373702
0.19674928 -0.05 0.059218171 25.466661
0.19259296 -0.05 0.059121111 25.558566
0.18849678 -0.05 0.059012097 25.648072
0.18445995 -0.05 0.058891414 25.735093
0.18048165 -0.05 0.058759289 25.820669
0.17656107 -0.05 0.058615914 25.903922
0.17269743 -0.05 0.058461529 25.986787
0.16888995 -0.05 0.058296329 26.06832
0.16513786 -0.05 0.05812048 26.148972
0.16144042 -0.05 0.057934146 26.227583
0.15779687 -0.05 0.057737582 26.305251
0.15420649 -0.05 0.05753093 26.381774
0.15066857 -0.05 0.057314363 26.456395
0.14718238 -0.05 0.057088059 26.52996
0.14374723 -0.05 0.056852139 26.601496
0.14036244 -0.05 0.056606792 26.671062
0.13702732 -0.05 0.056352159 26.739393
0.13374121 -0.05 0.056088437 26.805479
0.13050346 -0.05 0.055815762 26.870569
0.12731342 -0.05 0.055534188 26.932938
0.12417045 -0.05 0.055243922 26.99372
0.12107392 -0.05 0.054945111 27.053562
0.11802323 -0.05 0.054637795 27.111004
0.11501777 -0.05 0.05432207 27.166006
0.11205695 -0.05 0.053998095 27.219142
0.10914019 -0.05 0.053665923 27.269912
0.10626691 -0.05 0.053325669 27.316402
0.10343654 -0.05 0.052977513 27.36093
0.10064852 -0.05 0.052621416 27.402613
0.097902337 -0.05 0.052257455 27.439493
0.095197428 -0.05 0.051885792 27.47418
0.092533291 -0.05 0.051506363 27.505784
0.08990941 -0.05 0.051119253 27.532161
0.087325278 -0.05 0.050724546 27.557599
0.084780399 -0.05 0.050322286 27.580011
0.08227429 -0.05 0.049912535 27.602619
0.079806498 -0.05 0.049495202 27.623005
0.077376566 -0.05 0.049070298 27.641108
0.07498403 -0.05 0.048637911 27.658906
0.072628446 -0.05 0.048198076 27.676093
0.070309407 -0.05 0.047750693 27.690846
0.068026497 -0.05 0.047295738 27.701015
0.065779309 -0.05 0.046833221 27.707836
0.06356746 -0.05 0.046363062 27.710173
0.06139058 -0.05 0.045885191 27.708688
0.059248302 -0.05 0.045399556 27.70567
0.057140283 -0.05 0.044906069 27.70513
0.055066171 -0.05 0.044404707 27.709718
0.05302567 -0.05 0.043895291 27.72473
0.051018484 -0.05 0.043377679 27.743078
0.049044307 -0.05 0.042851816 27.775067
0.04710288 -0.05 0.042317528 27.813341
0.04519396 -0.05 0.041774634 27.859268
0.043317346 -0.05 0.041222868 27.909182
0.041472831 -0.05 0.040662041 27.960778
0.039660212 -0.05 0.040092011 28.013831
0.037879348 -0.05 0.039512495 28.068531
0.036130125 -0.05 0.03892319 28.118783
0.034412459 -0.05 0.038323784 28.164876
0.032726285 -0.05 0.037713964 28.202451
0.031071588 -0.05 0.037093378 28.235388
0.029448407 -0.05 0.036461591 28.260733
0.027856797 -0.05 0.03581822 28.282767
0.026296893 -0.05 0.035162774 28.306999
0.024768887 -0.05 0.034494731 28.334563
0.023273023 -0.05 0.033813571 28.370987
0.021809659 -0.05 0.033118654 28.419602
0.020379184 -0.05 0.032409395 28.480037
0.018982149 -0.05 0.03168505 28.564987
0.017619185 -0.05 0.030944837 28.664746
0.01629102 -0.05 0.030187987 28.770405
0.014998567 -0.05 0.029413621 28.877597
0.013742922 -0.05 0.028620839 28.986046
0.012525371 -0.05 0.027808701 29.08432
0.011347427 -0.05 0.026976154 29.16403
0.010210798 -0.05 0.026122081 29.223099
0.0091175165 -0.05 0.02524555 29.249583
0.0080700368 -0.05 0.024345629 29.218994
0.0070710475 -0.05 0.023421125 29.113305
0.0061235762 -0.05 0.022471194 28.912899
0.0052313462 -0.05 0.021495525 28.60659
0.0043982103 -0.05 0.020493592 28.148392
0.0036282597 -0.05 0.019465411 27.506324
0.0029262814 -0.05 0.018412114 26.648002
0.0022969042 -0.05 0.017334992 25.527999
0.001744564 -0.05 0.016236371 24.104482
0.001273344 -0.05 0.015120129 22.353592
0.00088649583 -0.05 0.01399054 20.268853
0.00058598094 -0.05 0.012852837 17.852626
0.00037212268 -0.05 0.011713069 15.081542
0.00024366588 -0.05 0.010577357 11.902034
0.99631258 -0.05 -0.029460173 4.2109858
0.99014028 -0.05 -0.028316226 0.84415586
0.9839667 -0.05 -0.027179219 0.86919299
0.97779184 -0.05 -0.026049128 0.4219945
0.97161575 -0.05 -0.024925848 0.70143677
0.96543845 -0.05 -0.02380922 0.57959528
0.95925995 -0.05 -0.022699262 0.64772413
0.95308026 -0.05 -0.021595912 0.6180746
0.94689943 -0.05 -0.020499017 0.64059781
0.94071747 -0.05 -0.01940849 0.63682587
0.93453439 -0.05 -0.01832433 0.64780389
0.92835021 -0.05 -0.017246475 0.65856911
0.92216494 -0.05 -0.016174851 0.66971211
0.9159786 -0.05 -0.015109422 0.68406136
0.90979122 -0.05 -0.01405004 0.69871264
0.90360282 -0.05 -0.012996706 0.72611755
0.89741339 -0.05 -0.011949389 0.79613012
0.89122298 -0.05 -0.010907955 0.81080404
0.88503157 -0.05 -0.0098723891 0.83702841
0.87883917 -0.05 -0.0088427499 0.81797247
0.87264582 -0.05 -0.0078188998 0.81627202
0.86645153 -0.05 -0.0068007714 0.78227804
0.86025629 -0.05 -0.0057883934 0.7665099
0.85406013 -0.05 -0.00478168 0.72850811
0.84786306 -0.05 -0.0037805692 0.66764604
0.84166508 -0.05 -0.0027850748 0.57703106
0.83546621 -0.05 -0.0017952332 0.43588583
0.82926646 -0.05 -0.00081086982 0.17344872
0.82306583 -0.05 0.00016797498 0.47538935
0.81686433 -0.05 0.0011412548 0.68014139
0.81066197 -0.05 0.0021090487 0.84550768
0.80445876 -0.05 0.0030713658 1.0045954
0.7982547 -0.05 0.0040282378 1.1617871
0.7920498 -0.05 0.0049796192 1.3185606
0.78584408 -0.05 0.0059255962 1.4787513
0.77963753 -0.05 0.0068661335 1.6430973
0.77343015 -0.05 0.0078011996 1.8095771
0.76722196 -0.05 0.008730855 1.9772666
0.76101295 -0.05 0.0096550853 2.1532
0.75480314 -0.05 0.01057388 2.3400398
0.74859253 -0.05 0.011487212 2.535271
0.74238111 -0.05 0.012395064 2.7379263
0.7361689 -0.05 0.013297423 2.9470468
0.72995588 -0.05 0.014194253 3.1615783
0.72374208 -0.05 0.015085587 3.3797249
0.71752749 -0.05 0.015971453 3.6084516
0.7113121 -0.05 0.016851679 3.847838
0.70509591 -0.05 0.017726316 4.0932836
0.69887894 -0.05 0.018595327 4.3421093
0.69266118 -0.05 0.01945862 4.5932983
0.68644263 -0.05 0.020316252 4.8498067
0.68022329 -0.05 0.021168123 5.109754
0.67400316 -0.05 0.022014245 5.3721515
0.66778224 -0.05 0.022854502 5.6362384
0.66156052 -0.05 0.023688793 5.9053637
0.655338 -0.05 0.024517202 6.18019
0.6491147 -0.05 0.025339644 6.4569546
0.6428906 -0.05 0.026155952 6.7354209
0.63666568 -0.05 0.026966094 7.0170922
0.63043996 -0.05 0.027770071 7.3028891
0.62421344 -0.05 0.028567747 7.5900326
0.61798611 -0.05 0.029359036 7.8780162
0.61175795 -0.05 0.030143936 8.1692029
0.60552899 -0.05 0.030922303 8.4625846
0.59929921 -0.05 0.031694063 8.7569241
0.59306859 -0.05 0.032459135 9.0536059
0.58683714 -0.05 0.033217426 9.3509231
0.58060486 -0.05 0.03396882 9.6484622
0.57437174 -0.05 0.034713175 9.9470952
0.56813778 -0.05 0.035450456 10.263247
0.56190297 -0.05 0.036180541 10.603528
0.5556673 -0.05 0.036903271 10.9417
0.54943078 -0.05 0.037618571 11.275797
0.54319338 -0.05 0.038326281 11.60669
0.53695512 -0.05 0.039026262 11.935086
0.53071599 -0.05 0.039718442 12.261925
0.52447598 -0.05 0.040402649 12.585128
0.51823508 -0.05 0.041078742 12.905178
0.5119933 -0.05 0.041746553 13.222737
0.50575061 -0.05 0.042405944 13.538529
0.49950703 -0.05 0.043056791 13.852859
0.49326255 -0.05 0.043698897 14.164947
0.48701715 -0.05 0.04433206 14.473909
0.48077084 -0.05 0.044956154 14.780132
0.47452362 -0.05 0.045571041 15.085521
0.46827547 -0.05 0.04617647 15.390027
0.4620264 -0.05 0.046772228 15.692923
0.45577639 -0.05 0.047358151 15.993396
0.44952546 -0.05 0.047934057 16.291709
0.44327358 -0.05 0.048499719 16.588651
0.43702077 -0.05 0.049054897 16.884969
0.43076702 -0.05 0.049599381 17.180504
0.42451233 -0.05 0.050132971 17.475121
0.4182567 -0.05 0.050655418 17.768004
0.41200012 -0.05 0.051166444 18.058786
0.40574261 -0.05 0.051665823 18.348797
0.39948415 -0.05 0.052153271 18.639082
0.39322476 -0.05 0.052628478 18.928459
0.38696444 -0.05 0.053091228 19.216991
0.38070318 -0.05 0.05354128 19.504791
0.37444099 -0.05 0.053978236 19.791093
0.36817789 -0.05 0.054401774 20.076394
0.36191388 -0.05 0.054811654 20.3625
0.35564897 -0.05 0.055207535 20.64845
0.34938316 -0.05 0.055589062 20.933178
0.34311648 -0.05 0.055955846 21.216492
0.33684894 -0.05 0.056307558 21.498981
0.33058055 -0.05 0.056643804 21.781101
0.32431132 -0.05 0.056964161 22.062917
0.31804128 -0.05 0.057268238 22.346405
0.31177045 -0.05 0.057555617 22.632355
0.30549887 -0.05 0.057825864 22.689975
