# p  FACE_DATA 448
# x y z  p
0.2970492 -0.05 -0.060091611 100479.33
0.29141201 -0.05 -0.06006769 100488.51
0.28585605 -0.05 -0.060029545 100495.99
0.28038019 -0.05 -0.059977383 100502.41
0.27498332 -0.05 -0.059911471 100507.42
0.26966432 -0.05 -0.059832104 100511.82
0.26442212 -0.05 -0.059739554 100515.31
0.25925565 -0.05 -0.059634065 100518.17
0.25416387 -0.05 -0.059515925 100520.29
0.24914572 -0.05 -0.059385377 100522.11
0.2442002 -0.05 -0.059242604 100523.86
0.23932629 -0.05 -0.059087883 100525.37
0.23452301 -0.05 -0.058921455 100527
0.22978937 -0.05 -0.058743583 100528.28
0.2251244 -0.05 -0.058554508 100529.74
0.22052716 -0.05 -0.058354401 100531.35
0.21599672 -0.05 -0.058143525 100533.05
0.21153215 -0.05 -0.057922103 100534.97
0.20713253 -0.05 -0.057690264 100537.19
0.20279697 -0.05 -0.057448274 100539.57
0.19852461 -0.05 -0.057196345 100542.28
0.19431455 -0.05 -0.056934707 100545.07
0.19016593 -0.05 -0.056663563 100548.18
0.18607793 -0.05 -0.056382997 100551.63
0.1820497 -0.05 -0.056093259 100555.21
0.17808043 -0.05 -0.055794541 100559.14
0.17416931 -0.05 -0.055487001 100563.22
0.17031553 -0.05 -0.055170848 100567.53
0.16651831 -0.05 -0.054846242 100572
0.16277689 -0.05 -0.054513318 100576.76
0.1590905 -0.05 -0.054172209 100581.7
0.15545839 -0.05 -0.053823135 100586.78
0.15187983 -0.05 -0.053466212 100592.15
0.14835408 -0.05 -0.05310158 100597.59
0.14488044 -0.05 -0.052729388 100603.25
0.1414582 -0.05 -0.052349727 100609.07
0.13808666 -0.05 -0.051962756 100615.06
0.13476515 -0.05 -0.051568591 100621.23
0.13149298 -0.05 -0.051167398 100627.39
0.12826949 -0.05 -0.050759287 100633.82
0.12509405 -0.05 -0.050344282 100640.43
0.12196601 -0.05 -0.049922566 100647.03
0.11888472 -0.05 -0.049494258 100653.77
0.11584958 -0.05 -0.049059374 100660.71
0.11286 -0.05 -0.048617986 100667.77
0.10991536 -0.05 -0.048170222 100674.92
0.10701508 -0.05 -0.047716116 100682.33
0.10415858 -0.05 -0.047255758 100689.73
0.10134528 -0.05 -0.046789302 100697.23
0.098574635 -0.05 -0.046316688 100705.03
0.095846112 -0.05 -0.045837969 100712.84
0.093159152 -0.05 -0.045353284 100720.77
0.090513257 -0.05 -0.044862549 100729.05
0.087907902 -0.05 -0.044365826 100737.34
0.085342579 -0.05 -0.043863179 100745.91
0.082816792 -0.05 -0.043354631 100754.48
0.080330054 -0.05 -0.042840222 100763.28
0.077881918 -0.05 -0.042319845 100772.38
0.075471926 -0.05 -0.041793489 100781.68
0.073099611 -0.05 -0.041261223 100791.06
0.070764528 -0.05 -0.040723064 100800.65
0.068466272 -0.05 -0.040178896 100810.6
0.066204432 -0.05 -0.039628677 100820.74
0.063978599 -0.05 -0.039072398 100831.18
0.061788396 -0.05 -0.038509966 100841.94
0.059633452 -0.05 -0.037941293 100853.04
0.057513406 -0.05 -0.037366314 100864.49
0.055427918 -0.05 -0.036784925 100876.33
0.053376638 -0.05 -0.036197089 100888.47
0.051359276 -0.05 -0.035602613 100901.26
0.049375544 -0.05 -0.035001346 100914.36
0.047425137 -0.05 -0.034393218 100928.02
0.045507804 -0.05 -0.033778044 100942.17
0.04362331 -0.05 -0.033155635 100956.99
0.041771466 -0.05 -0.032525714 100972.57
0.039952072 -0.05 -0.031888087 100988.83
0.038164932 -0.05 -0.0312426 101005.84
0.036409917 -0.05 -0.030588967 101023.84
0.034686926 -0.05 -0.02992688 101042.83
0.032995886 -0.05 -0.029256022 101062.89
0.031336749 -0.05 -0.02857608 101084.01
0.029709509 -0.05 -0.027886699 101106.36
0.028114228 -0.05 -0.027187448 101129.91
0.026550977 -0.05 -0.026477946 101154.65
0.02501991 -0.05 -0.025757709 101180.71
0.02352124 -0.05 -0.025026222 101208.61
0.022055232 -0.05 -0.024282977 101238.67
0.020622275 -0.05 -0.023527349 101271.19
0.019222779 -0.05 -0.02275877 101305.84
0.017857323 -0.05 -0.021976519 101342.88
0.016526574 -0.05 -0.021179842 101382.14
0.015231291 -0.05 -0.020368001 101424.24
0.013972424 -0.05 -0.019540155 101470.09
0.012751102 -0.05 -0.018695452 101521.7
0.011568653 -0.05 -0.017833006 101579.54
0.010426631 -0.05 -0.016951829 101644.95
0.0093267907 -0.05 -0.016050877 101717.17
0.0082711998 -0.05 -0.015129303 101795.45
0.0072623509 -0.05 -0.014186278 101878.32
0.00630298 -0.05 -0.013220723 101966.67
0.0053961474 -0.05 -0.012231923 102059.25
0.0045455861 -0.05 -0.011219723 102158.78
0.0037551676 -0.05 -0.010183758 102265.75
0.0030289787 -0.05 -0.0091242153 102377.64
0.0023717549 -0.05 -0.0080424273 102492.52
0.0017880668 -0.05 -0.0069398782 102607.53
0.0012822491 -0.05 -0.0058190765 102718.51
0.00085821863 -0.05 -0.0046840686 102820.46
0.00051904518 -0.05 -0.0035392618 102907.33
0.00026646921 -0.05 -0.0023899652 102977.31
0.00010056026 -0.05 -0.0012422368 103026.35
1.9807834e-05 -0.05 -0.00010213859 103049.74
0.99689154 -0.05 -0.0018395987 99261.458
0.99067673 -0.05 -0.0027238939 99158.765
0.98446092 -0.05 -0.0036012 99109.891
0.97824414 -0.05 -0.0044715436 99068.873
0.9720264 -0.05 -0.0053350311 99035.546
0.96580774 -0.05 -0.0061918211 99006.577
0.95958815 -0.05 -0.0070418962 98981.001
0.95336766 -0.05 -0.0078853202 98957.78
0.94714629 -0.05 -0.0087222479 98936.423
0.94092405 -0.05 -0.0095527637 98916.424
0.93470098 -0.05 -0.010376873 98897.688
0.92847707 -0.05 -0.011194635 98879.861
0.92225232 -0.05 -0.012006127 98862.959
0.91602677 -0.05 -0.012811384 98846.659
0.90980044 -0.05 -0.013610557 98830.911
0.90357333 -0.05 -0.014403644 98815.886
0.89734546 -0.05 -0.015190676 98801.359
0.89111683 -0.05 -0.015971788 98787.128
0.88488747 -0.05 -0.016746996 98773.12
0.87865737 -0.05 -0.017516241 98759.704
0.87242655 -0.05 -0.018279662 98746.143
0.86619503 -0.05 -0.019037327 98732.591
0.85996281 -0.05 -0.019789207 98718.623
0.85372991 -0.05 -0.020535389 98704.68
0.84749632 -0.05 -0.021275935 98689.915
0.84126208 -0.05 -0.022010832 98674.652
0.83502717 -0.05 -0.022740043 98658.244
0.82879161 -0.05 -0.023463744 98641.159
0.82255541 -0.05 -0.024181894 98623.097
0.81631858 -0.05 -0.024894447 98604.28
0.81008112 -0.05 -0.025601484 98584.7
0.80384302 -0.05 -0.026303013 98564.535
0.79760432 -0.05 -0.026999067 98543.904
0.791365 -0.05 -0.027689599 98523.166
0.78512509 -0.05 -0.028374697 98502.589
0.77888458 -0.05 -0.029054325 98482.422
0.77264347 -0.05 -0.029728453 98463.138
0.76640177 -0.05 -0.03039714 98444.892
0.7601595 -0.05 -0.031060373 98428.221
0.75391664 -0.05 -0.031718142 98412.6
0.74767321 -0.05 -0.032370418 98399.211
0.7414292 -0.05 -0.033017187 98387.629
0.73518463 -0.05 -0.033658433 98378.662
0.72893949 -0.05 -0.034294121 98371.59
0.7226938 -0.05 -0.034924285 98367.065
0.71644754 -0.05 -0.035548954 98364.748
0.71020073 -0.05 -0.036167954 98365.155
0.70395335 -0.05 -0.036781335 98367.35
0.69770542 -0.05 -0.037389063 98372.397
0.69145694 -0.05 -0.037991046 98379.548
0.68520792 -0.05 -0.038587338 98389.21
0.67895834 -0.05 -0.039177844 98400.754
0.67270823 -0.05 -0.039762571 98414.457
0.66645756 -0.05 -0.040341405 98430.179
0.66020634 -0.05 -0.040914244 98447.757
0.65395459 -0.05 -0.041481174 98466.923
0.64770229 -0.05 -0.042042109 98487.806
0.64144943 -0.05 -0.042596881 98510.337
0.63519603 -0.05 -0.043145459 98534.283
0.6289421 -0.05 -0.043687844 98559.615
0.62268762 -0.05 -0.0442239 98586.28
0.6164326 -0.05 -0.044753541 98614.162
0.61017703 -0.05 -0.045276763 98643.085
0.60392091 -0.05 -0.045793423 98673.409
0.59766426 -0.05 -0.04630345 98704.551
0.59140706 -0.05 -0.046806759 98736.83
0.58514931 -0.05 -0.047303258 98769.857
0.57889101 -0.05 -0.047792831 98804.124
0.57263217 -0.05 -0.048275336 98839.112
0.56637279 -0.05 -0.048750738 98874.969
0.56011287 -0.05 -0.049218915 98911.612
0.55385239 -0.05 -0.049679707 98949.4
0.54759137 -0.05 -0.05013304 98987.743
0.54132981 -0.05 -0.050578753 99027.022
0.53506769 -0.05 -0.051016708 99066.901
0.52880503 -0.05 -0.051446831 99107.74
0.52254183 -0.05 -0.051868953 99149.157
0.51627809 -0.05 -0.052282931 99191.251
0.51001379 -0.05 -0.052688595 99234.014
0.50374897 -0.05 -0.05308581 99277.6
0.4974836 -0.05 -0.053474451 99321.68
0.49121769 -0.05 -0.053854322 99366.273
0.48495124 -0.05 -0.054225217 99411.412
0.47868427 -0.05 -0.054587014 99456.977
0.47241677 -0.05 -0.054939574 99502.891
0.46614875 -0.05 -0.055282645 99549.022
0.45988019 -0.05 -0.055616015 99595.349
0.45361112 -0.05 -0.055939521 99641.747
0.44734155 -0.05 -0.056252978 99688.284
0.44107146 -0.05 -0.056556161 99734.587
0.43480088 -0.05 -0.056848831 99780.945
0.4285298 -0.05 -0.057130775 99826.706
0.42225824 -0.05 -0.057401796 99872.13
0.41598621 -0.05 -0.057661644 99916.779
0.40971372 -0.05 -0.057910043 99960.726
0.40344078 -0.05 -0.058146765 100003.33
0.3971674 -0.05 -0.058371527 100045.44
0.39089359 -0.05 -0.058584019 100086.23
0.38461937 -0.05 -0.058784027 100126.08
0.37834475 -0.05 -0.058971308 100163.65
0.37206976 -0.05 -0.059145467 100200.39
0.36579441 -0.05 -0.05930618 100235.14
0.35951872 -0.05 -0.059453209 100268.11
0.35324272 -0.05 -0.059586213 100298.26
0.34696644 -0.05 -0.05970484 100326.84
0.34068988 -0.05 -0.0598087 100353.27
0.3344131 -0.05 -0.059897464 100377.87
0.32813613 -0.05 -0.059970741 100399.89
0.32185898 -0.05 -0.060028107 100420.05
0.31558171 -0.05 -0.060069173 100438.24
0.30930435 -0.05 -0.060093524 100453.83
0.30302694 -0.05 -0.060100726 100467.72
0.29727253 -0.05 0.059916084 100453.18
0.29163529 -0.05 0.059913144 100462.48
0.28607923 -0.05 0.059895677 100469.65
0.28060322 -0.05 0.059863896 100475.96
0.27520613 -0.05 0.059818071 100481.23
0.26988687 -0.05 0.059758502 100485.58
0.26464436 -0.05 0.059685464 100488.84
0.25947754 -0.05 0.059599205 100491.48
0.25438535 -0.05 0.059500016 100493.71
0.24936675 -0.05 0.059388145 100495.56
0.24442073 -0.05 0.05926378 100497.37
0.23954629 -0.05 0.0591272 100498.85
0.23474241 -0.05 0.058978651 100500.47
0.23000814 -0.05 0.058818398 100501.78
0.2253425 -0.05 0.058646687 100503.4
0.22074456 -0.05 0.058463691 100505.09
0.21621336 -0.05 0.058269679 100506.8
0.21174799 -0.05 0.058064874 100508.74
0.20734754 -0.05 0.057849412 100511
0.20301111 -0.05 0.057623559 100513.36
0.19873784 -0.05 0.057387533 100515.99
0.19452684 -0.05 0.057141567 100518.66
0.19037724 -0.05 0.056885865 100521.63
0.18628822 -0.05 0.056620515 100524.95
0.18225895 -0.05 0.056345773 100528.38
0.17828859 -0.05 0.05606183 100532.2
0.17437634 -0.05 0.055768849 100536.2
0.17052141 -0.05 0.055467041 100540.47
0.16672302 -0.05 0.05515657 100544.88
0.16298038 -0.05 0.054837574 100549.59
0.15929275 -0.05 0.054510187 100554.49
0.15565936 -0.05 0.054174634 100559.47
0.1520795 -0.05 0.053831032 100564.79
0.14855243 -0.05 0.053479525 100570.17
0.14507742 -0.05 0.053120263 100575.76
0.14165379 -0.05 0.052753343 100581.53
0.13828083 -0.05 0.052378924 100587.48
0.13495787 -0.05 0.051997123 100593.66
0.13168423 -0.05 0.051608111 100599.77
0.12845925 -0.05 0.051212 100606.11
0.12528229 -0.05 0.050808816 100612.67
0.1221527 -0.05 0.050398746 100619.21
0.11906983 -0.05 0.04998191 100625.89
0.1160331 -0.05 0.049558325 100632.78
0.1130419 -0.05 0.049128066 100639.82
0.11009561 -0.05 0.048691265 100646.95
0.10719366 -0.05 0.048247958 100654.42
0.10433547 -0.05 0.047798234 100661.81
0.10152045 -0.05 0.047342251 100669.26
0.098748067 -0.05 0.046879952 100677.1
0.096017782 -0.05 0.046411391 100684.9
0.093329038 -0.05 0.045936711 100692.78
0.090681334 -0.05 0.045455828 100701.15
0.088074148 -0.05 0.044968805 100709.42
0.085506972 -0.05 0.044475709 100717.94
0.08297931 -0.05 0.043976565 100726.36
0.080490675 -0.05 0.043471415 100735.14
0.078040619 -0.05 0.042960153 100744.26
0.075628685 -0.05 0.04244277 100753.66
0.073254404 -0.05 0.041919338 100763.05
0.070917334 -0.05 0.041389873 100772.62
0.06861707 -0.05 0.040854263 100782.61
0.066353199 -0.05 0.040312465 100792.75
0.064125311 -0.05 0.039764475 100803.13
0.061933028 -0.05 0.039210198 100813.83
0.059775983 -0.05 0.038649549 100824.92
0.057653812 -0.05 0.038082465 100836.36
0.055566175 -0.05 0.037508842 100848.19
0.053512721 -0.05 0.036928644 100860.15
0.051493161 -0.05 0.036341682 100872.88
0.049507204 -0.05 0.035747802 100885.91
0.047554548 -0.05 0.035146937 100899.38
0.045634938 -0.05 0.034538903 100913.26
0.043748141 -0.05 0.033923513 100927.76
0.041893965 -0.05 0.033300489 100943.11
0.04007221 -0.05 0.032669637 100959.09
0.038282681 -0.05 0.032030806 100975.63
0.036525244 -0.05 0.03138371 100993.07
0.034799801 -0.05 0.03072804 101011.38
0.033106276 -0.05 0.030063481 101030.86
0.031444619 -0.05 0.029389718 101051.4
0.029814825 -0.05 0.028706399 101072.99
0.028216953 -0.05 0.02801309 101095.81
0.026651072 -0.05 0.027309411 101120.2
0.025117335 -0.05 0.026594878 101146.32
0.023615953 -0.05 0.025868973 101174.18
0.02214719 -0.05 0.02513119 101204.02
0.020711429 -0.05 0.024380901 101236.17
0.019309082 -0.05 0.023617536 101270.53
0.017940725 -0.05 0.022840372 101307.97
0.01660702 -0.05 0.022048653 101348.38
0.015308724 -0.05 0.021241638 101392.33
0.014046784 -0.05 0.020418484 101440.06
0.012822327 -0.05 0.019578332 101492.05
0.011636676 -0.05 0.018720293 101548.4
0.010491383 -0.05 0.017843373 101610.32
0.009388197 -0.05 0.01694652 101678.74
0.0083291834 -0.05 0.016028882 101753.55
0.0073168316 -0.05 0.015089617 101834.34
0.0063538738 -0.05 0.01412764 101922.91
0.0054433672 -0.05 0.013142222 102018.23
0.0045890445 -0.05 0.012133195 102120.95
0.0037947757 -0.05 0.011100179 102230.49
0.0030646485 -0.05 0.010043346 102345.23
0.0024034029 -0.05 0.0089640119 102463.19
0.0018156153 -0.05 0.0078636429 102581.59
0.0013056297 -0.05 0.0067447316 102696.46
0.00087737771 -0.05 0.0056113097 102802.12
0.00053394581 -0.05 0.0044677731 102892.96
0.00027709405 -0.05 0.0033194245 102966.42
0.00010691455 -0.05 0.0021723216 103019.6
2.1919389e-05 -0.05 0.0010325318 103047.51
0.99689322 -0.05 -0.00094024782 99102.48
0.99068175 -0.05 -3.2827985e-05 99027.418
0.98446924 -0.05 0.00086760638 99016.036
0.97825574 -0.05 0.0017610821 98999.36
0.97204125 -0.05 0.0026477052 98979.03
0.96582582 -0.05 0.0035276343 98958.616
0.95960944 -0.05 0.0044008521 98938.646
0.95339213 -0.05 0.0052674221 98919.298
0.94717393 -0.05 0.0061274991 98900.77
0.94095482 -0.05 0.0069811675 98882.988
0.93473485 -0.05 0.0078284323 98865.67
0.92851402 -0.05 0.0086693535 98848.888
0.92229235 -0.05 0.0095040077 98832.709
0.91606984 -0.05 0.01033243 98817.221
0.90984653 -0.05 0.011154771 98802.266
0.90362241 -0.05 0.011971029 98787.884
0.89739751 -0.05 0.012781234 98773.911
0.89117183 -0.05 0.013585523 98760.132
0.8849454 -0.05 0.014383911 98746.658
0.8787182 -0.05 0.015176338 98733.283
0.87249027 -0.05 0.015962945 98719.673
0.86626161 -0.05 0.016743797 98705.954
0.86003223 -0.05 0.017518868 98692.333
0.85380216 -0.05 0.018288242 98678.485
0.84757137 -0.05 0.019051983 98664.126
0.84133991 -0.05 0.019810078 98648.896
0.83510776 -0.05 0.020562489 98633.12
0.82887493 -0.05 0.021309394 98616.412
0.82264145 -0.05 0.022050749 98598.967
0.81640731 -0.05 0.022786511 98580.661
0.81017251 -0.05 0.023516757 98561.468
0.80393708 -0.05 0.024241499 98541.582
0.79770101 -0.05 0.024960767 98521.344
0.79146431 -0.05 0.025674517 98500.864
0.78522699 -0.05 0.026382834 98480.556
0.77898906 -0.05 0.027085685 98460.615
0.7727505 -0.05 0.027783035 98441.645
0.76651134 -0.05 0.028474949 98423.755
0.76027156 -0.05 0.029161411 98406.735
0.7540312 -0.05 0.02984241 98391.235
0.74779024 -0.05 0.030517919 98377.441
0.74154869 -0.05 0.031187922 98365.833
0.73530655 -0.05 0.031852406 98356.085
0.72906382 -0.05 0.032511333 98349.016
0.72282051 -0.05 0.033164738 98344.138
0.71657662 -0.05 0.033812651 98341.597
0.71033215 -0.05 0.034454896 98341.192
0.70408711 -0.05 0.035091524 98343.279
0.69784148 -0.05 0.035722503 98347.702
0.69159528 -0.05 0.036347737 98354.617
0.68534852 -0.05 0.036967284 98363.43
0.67910119 -0.05 0.037581044 98374.743
0.67285329 -0.05 0.03818903 98388.004
0.66660482 -0.05 0.038791124 98403.381
0.66035577 -0.05 0.039387226 98420.479
0.65410617 -0.05 0.03997742 98439.404
0.647856 -0.05 0.040561621 98460.014
0.64160526 -0.05 0.041139662 98482.243
0.63535395 -0.05 0.041711511 98505.928
0.62910208 -0.05 0.042277168 98530.939
0.62284964 -0.05 0.042836498 98557.317
0.61659663 -0.05 0.043389416 98584.806
0.61034305 -0.05 0.043935917 98613.752
0.6040889 -0.05 0.044475858 98643.708
0.59783419 -0.05 0.045009168 98674.829
0.5915789 -0.05 0.045535761 98706.896
0.58532304 -0.05 0.046055547 98740.064
0.57906662 -0.05 0.04656841 98774.084
0.57280961 -0.05 0.047074205 98809.052
0.56655205 -0.05 0.047572901 98844.84
0.5602939 -0.05 0.048064374 98881.762
0.55403518 -0.05 0.048548462 98919.379
0.5477759 -0.05 0.049025096 98957.795
0.54151604 -0.05 0.049494112 98996.949
0.53525559 -0.05 0.04995537 99036.966
0.52899458 -0.05 0.050408799 99077.522
0.52273299 -0.05 0.050854229 99118.766
0.51647083 -0.05 0.051291516 99160.685
0.5102081 -0.05 0.051720492 99203.528
0.50394478 -0.05 0.052141021 99246.937
0.49768091 -0.05 0.052552979 99290.946
0.49141646 -0.05 0.052956167 99335.471
0.48515144 -0.05 0.053350384 99380.588
0.47888585 -0.05 0.053735502 99426.025
0.4726197 -0.05 0.054111386 99471.703
0.466353 -0.05 0.054477784 99517.63
0.46008574 -0.05 0.054834482 99563.986
0.45381791 -0.05 0.055181318 99610.511
0.44754954 -0.05 0.055518108 99656.968
0.44128063 -0.05 0.055844627 99703.349
0.43501118 -0.05 0.056160632 99749.745
0.4287412 -0.05 0.056465914 99795.626
0.42247069 -0.05 0.056760276 99840.909
0.41619967 -0.05 0.057043466 99885.07
0.40992815 -0.05 0.057315208 99928.937
0.40365613 -0.05 0.057575275 99971.974
0.39738362 -0.05 0.057823384 100013.97
0.39111065 -0.05 0.058059226 100055.27
0.38483722 -0.05 0.058282584 100094.47
0.37856335 -0.05 0.058493217 100133.17
0.37228904 -0.05 0.058690729 100170.1
0.36601433 -0.05 0.058874798 100205.25
0.35973924 -0.05 0.059045182 100237.63
0.35346378 -0.05 0.059201545 100268.92
0.34718798 -0.05 0.05934353 100297.94
0.34091186 -0.05 0.05947075 100325.37
0.33463545 -0.05 0.059582875 100349.8
0.32835879 -0.05 0.059679514 100372.88
0.32208191 -0.05 0.059760242 100393.52
0.31580483 -0.05 0.059824671 100411.81
0.3095276 -0.05 0.059872385 100427.24
0.30325026 -0.05 0.059902949 100441.36
