# wallShearStress  FACE_DATA 448
# x y z  wallShearStress_x wallShearStress_y wallShearStress_z
0.2970492 -0.05 -0.060091611 -11.921765 -6.3677404e-18 0.039052105
0.29141201 -0.05 -0.06006769 -11.677609 -6.0065379e-17 0.06826183
0.28585605 -0.05 -0.060029545 -11.453535 3.3413755e-17 0.095980934
0.28038019 -0.05 -0.059977383 -11.2333 3.4461197e-17 0.12392424
0.27498332 -0.05 -0.059911471 -11.017684 -6.6251171e-18 0.15148709
0.26966432 -0.05 -0.059832104 -10.808271 -3.1618301e-17 0.17841888
0.26442212 -0.05 -0.059739554 -10.604158 -3.8908025e-17 0.2042854
0.25925565 -0.05 -0.059634065 -10.404957 -2.2771791e-17 0.22945885
0.25416387 -0.05 -0.059515925 -10.210986 1.9320879e-16 0.25361552
0.24914572 -0.05 -0.059385377 -10.023671 -3.4641799e-17 0.27745214
0.2442002 -0.05 -0.059242604 -9.8433996 3.770873e-17 0.30059096
0.23932629 -0.05 -0.059087883 -9.6689945 4.7571418e-17 0.32302984
0.23452301 -0.05 -0.058921455 -9.4980641 1.3924622e-16 0.34473437
0.22978937 -0.05 -0.058743583 -9.3278397 1.3710627e-16 0.36564841
0.2251244 -0.05 -0.058554508 -9.1612172 -2.2153976e-16 0.38625212
0.22052716 -0.05 -0.058354401 -8.999334 -2.2333884e-16 0.40640659
0.21599672 -0.05 -0.058143525 -8.8423486 6.549823e-17 0.42603283
0.21153215 -0.05 -0.057922103 -8.690803 -1.2291911e-16 0.4455328
0.20713253 -0.05 -0.057690264 -8.5427348 -4.0374546e-16 0.46452849
0.20279697 -0.05 -0.057448274 -8.3987457 -1.656401e-16 0.48306244
0.19852461 -0.05 -0.057196345 -8.259022 2.743262e-16 0.50127867
0.19431455 -0.05 -0.056934707 -8.1230125 3.153802e-16 0.51902394
0.19016593 -0.05 -0.056663563 -7.9909757 4.0508111e-17 0.53666425
0.18607793 -0.05 -0.056382997 -7.861222 2.4010399e-16 0.55387719
0.1820497 -0.05 -0.056093259 -7.7341574 1.6895866e-16 0.57060625
0.17808043 -0.05 -0.055794541 -7.6104493 8.9101604e-17 0.58723706
0.17416931 -0.05 -0.055487001 -7.4890475 -5.6674128e-16 0.60338906
0.17031553 -0.05 -0.055170848 -7.3713854 -2.1625578e-16 0.61947156
0.16651831 -0.05 -0.054846242 -7.2568764 -1.5695273e-16 0.63530113
0.16277689 -0.05 -0.054513318 -7.1455904 1.0718574e-16 0.65100874
0.1590905 -0.05 -0.054172209 -7.0366431 -3.1525937e-16 0.66628661
0.15545839 -0.05 -0.053823135 -6.9300767 -1.290995e-16 0.68142601
0.15187983 -0.05 -0.053466212 -6.8254649 1.1324901e-16 0.69645223
0.14835408 -0.05 -0.05310158 -6.7229701 -3.0829836e-17 0.71117684
0.14488044 -0.05 -0.052729388 -6.6229258 -5.7460722e-16 0.72597532
0.1414582 -0.05 -0.052349727 -6.5250237 1.6210278e-16 0.74053838
0.13808666 -0.05 -0.051962756 -6.4294422 -3.4473342e-16 0.75494584
0.13476515 -0.05 -0.051568591 -6.3368706 2.5739799e-16 0.76928352
0.13149298 -0.05 -0.051167398 -6.2469132 3.8009194e-17 0.78361932
0.12826949 -0.05 -0.050759287 -6.1602842 4.6246739e-16 0.79825052
0.12509405 -0.05 -0.050344282 -6.0746507 2.3834921e-16 0.81247373
0.12196601 -0.05 -0.049922566 -5.9915602 -1.894878e-16 0.82667708
0.11888472 -0.05 -0.049494258 -5.9112653 -1.2219382e-16 0.84126045
0.11584958 -0.05 -0.049059374 -5.8327351 3.9841989e-16 0.85587182
0.11286 -0.05 -0.048617986 -5.7559259 -4.9024725e-16 0.87041253
0.10991536 -0.05 -0.048170222 -5.6816828 2.9929846e-16 0.88514904
0.10701508 -0.05 -0.047716116 -5.6093007 1.0719162e-16 0.89990205
0.10415858 -0.05 -0.047255758 -5.5382935 2.243779e-16 0.9145117
0.10134528 -0.05 -0.046789302 -5.4707673 -7.7198332e-16 0.92983181
0.098574635 -0.05 -0.046316688 -5.4051849 -9.9479748e-17 0.94540584
0.095846112 -0.05 -0.045837969 -5.3405977 7.8051342e-16 0.96089461
0.093159152 -0.05 -0.045353284 -5.2792812 5.4957447e-16 0.97722994
0.090513257 -0.05 -0.044862549 -5.2196607 -6.3310805e-18 0.9938592
0.087907902 -0.05 -0.044365826 -5.1606037 -1.2981041e-16 1.0103499
0.085342579 -0.05 -0.043863179 -5.1052137 1.7581905e-16 1.027677
0.082816792 -0.05 -0.043354631 -5.0515262 3.7762188e-16 1.0453503
0.080330054 -0.05 -0.042840222 -5.000967 4.7254163e-17 1.0640456
0.077881918 -0.05 -0.042319845 -4.9504409 -4.2406073e-16 1.0826651
0.075471926 -0.05 -0.041793489 -4.8995362 1.1188514e-16 1.1012061
0.073099611 -0.05 -0.041261223 -4.8496168 8.3927025e-16 1.1204351
0.070764528 -0.05 -0.040723064 -4.8024458 -4.0905819e-16 1.141046
0.068466272 -0.05 -0.040178896 -4.7571714 4.998068e-17 1.1622828
0.066204432 -0.05 -0.039628677 -4.7130773 3.0456305e-16 1.1840404
0.063978599 -0.05 -0.039072398 -4.6713579 -6.6152421e-16 1.2070119
0.061788396 -0.05 -0.038509966 -4.6314184 1.9778136e-17 1.2309606
0.059633452 -0.05 -0.037941293 -4.5929439 -2.6416145e-16 1.2557857
0.057513406 -0.05 -0.037366314 -4.5560317 -2.8252114e-16 1.2816979
0.055427918 -0.05 -0.036784925 -4.5210225 2.6316216e-16 1.3089187
0.053376638 -0.05 -0.036197089 -4.48817 -4.768236e-16 1.3380412
0.051359276 -0.05 -0.035602613 -4.4579493 6.1375618e-16 1.3690419
0.049375544 -0.05 -0.035001346 -4.426827 -4.0960063e-17 1.4005361
0.047425137 -0.05 -0.034393218 -4.3991866 1.5046711e-16 1.434174
0.045507804 -0.05 -0.033778044 -4.3735848 -9.7173771e-16 1.4699052
0.04362331 -0.05 -0.033155635 -4.3505849 7.5423313e-16 1.5081802
0.041771466 -0.05 -0.032525714 -4.3281899 -5.1598407e-16 1.5479862
0.039952072 -0.05 -0.031888087 -4.3058365 -5.5210503e-16 1.5895793
0.038164932 -0.05 -0.0312426 -4.2851306 5.4880541e-17 1.6342903
0.036409917 -0.05 -0.030588967 -4.2656381 2.1654718e-16 1.6818259
0.034686926 -0.05 -0.02992688 -4.2451657 -1.4206293e-16 1.7313105
0.032995886 -0.05 -0.029256022 -4.2241667 -4.9115117e-17 1.7831128
0.031336749 -0.05 -0.02857608 -4.2018315 -2.1981953e-16 1.8371896
0.029709509 -0.05 -0.027886699 -4.1788663 -5.0788408e-16 1.8938683
0.028114228 -0.05 -0.027187448 -4.151846 -8.9424699e-16 1.9515081
0.026550977 -0.05 -0.026477946 -4.1221628 8.127483e-16 2.0109187
0.02501991 -0.05 -0.025757709 -4.0893444 -1.0699113e-15 2.0724458
0.02352124 -0.05 -0.025026222 -4.0509472 -3.6782442e-16 2.1343055
0.022055232 -0.05 -0.024282977 -4.0028761 8.1631515e-16 2.1941111
0.020622275 -0.05 -0.023527349 -3.9367147 4.4234409e-16 2.2467471
0.019222779 -0.05 -0.02275877 -3.8439157 4.8157941e-16 2.2907313
0.017857323 -0.05 -0.021976519 -3.7307755 6.8984893e-16 2.3333269
0.016526574 -0.05 -0.021179842 -3.5997963 -5.1726427e-16 2.3839252
0.015231291 -0.05 -0.020368001 -3.472268 -7.7811775e-18 2.4646009
0.013972424 -0.05 -0.019540155 -3.3795741 -2.8771494e-17 2.6011164
0.012751102 -0.05 -0.018695452 -3.3255503 1.8897991e-17 2.8079995
0.011568653 -0.05 -0.017833006 -3.2971145 -4.9363131e-16 3.0955509
0.010426631 -0.05 -0.016951829 -3.3012815 -3.516429e-16 3.4731148
0.0093267907 -0.05 -0.016050877 -3.3477951 -5.1474144e-16 3.9316623
0.0082711998 -0.05 -0.015129303 -3.466688 -6.398765e-17 4.4620261
0.0072623509 -0.05 -0.014186278 -3.5947673 2.9170741e-16 4.9824053
0.00630298 -0.05 -0.013220723 -3.645587 2.7138349e-16 5.4062069
0.0053961474 -0.05 -0.012231923 -3.5730201 2.2782417e-16 5.6970712
0.0045455861 -0.05 -0.011219723 -3.3715159 5.565186e-16 5.8645082
0.0037551676 -0.05 -0.010183758 -3.0641839 -2.9083273e-16 5.8620581
0.0030289787 -0.05 -0.0091242153 -2.6623443 6.9508058e-16 5.6684042
0.0023717549 -0.05 -0.0080424273 -2.2017028 -5.5940678e-18 5.3119486
0.0017880668 -0.05 -0.0069398782 -1.7256787 -2.8280406e-16 4.7947689
0.0012822491 -0.05 -0.0058190765 -1.2639809 3.1224243e-16 4.1139227
0.00085821863 -0.05 -0.0046840686 -0.84718869 1.3083244e-16 3.3201041
0.00051904518 -0.05 -0.0035392618 -0.52605153 1.2692544e-16 2.4449969
0.00026646921 -0.05 -0.0023899652 -0.32414141 1.0361696e-17 1.5196909
0.00010056026 -0.05 -0.0012422368 -0.20175669 1.3924813e-16 0.78378888
1.9807834e-05 -0.05 -0.00010213859 -0.16084281 -3.4426305e-18 0.18724975
0.99689154 -0.05 -0.0018395987 -69.126265 -1.3398387e-17 -9.9250659
0.99067673 -0.05 -0.0027238939 -62.578052 1.5019134e-16 -8.9628492
0.98446092 -0.05 -0.0036012 -64.328328 1.2013423e-15 -8.9729784
0.97824414 -0.05 -0.0044715436 -63.99784 -1.3060336e-15 -8.8672197
0.9720264 -0.05 -0.0053350311 -63.92818 1.1339711e-15 -8.7830104
0.96580774 -0.05 -0.0061918211 -63.723169 1.1996309e-17 -8.6849269
0.95958815 -0.05 -0.0070418962 -63.482519 -5.5313298e-16 -8.5827494
0.95336766 -0.05 -0.0078853202 -63.20142 1.6250266e-15 -8.4776044
0.94714629 -0.05 -0.0087222479 -62.887519 -1.48117e-15 -8.3695449
0.94092405 -0.05 -0.0095527637 -62.550662 7.0426865e-17 -8.2596678
0.93470098 -0.05 -0.010376873 -62.188106 -3.8899892e-16 -8.1473928
0.92847707 -0.05 -0.011194635 -61.816567 7.2854624e-17 -8.0359345
0.92225232 -0.05 -0.012006127 -61.424126 6.6283497e-16 -7.9230196
0.91602677 -0.05 -0.012811384 -61.01914 -1.3276318e-15 -7.8104383
0.90980044 -0.05 -0.013610557 -60.592284 -4.019527e-16 -7.6961007
0.90357333 -0.05 -0.014403644 -60.154232 2.234113e-17 -7.5813425
0.89734546 -0.05 -0.015190676 -59.699691 1.1892782e-16 -7.4665511
0.89111683 -0.05 -0.015971788 -59.251868 1.9041241e-15 -7.3540466
0.88488747 -0.05 -0.016746996 -58.786155 -2.3232202e-16 -7.2403034
0.87865737 -0.05 -0.017516241 -58.322748 -2.6621425e-17 -7.1282384
0.87242655 -0.05 -0.018279662 -57.841115 -2.7591329e-15 -7.0160463
0.86619503 -0.05 -0.019037327 -57.37801 -1.1387338e-15 -6.9069756
0.85996281 -0.05 -0.019789207 -56.905201 1.9496245e-15 -6.7984573
0.85372991 -0.05 -0.020535389 -56.43031 -1.491617e-16 -6.690694
0.84749632 -0.05 -0.021275935 -55.931396 -1.5405129e-15 -6.5815096
0.84126208 -0.05 -0.022010832 -55.439441 4.9217179e-16 -6.4738024
0.83502717 -0.05 -0.022740043 -54.948112 3.0052172e-16 -6.3679847
0.82879161 -0.05 -0.023463744 -54.457862 -3.9183889e-16 -6.2630993
0.82255541 -0.05 -0.024181894 -53.961903 9.3859202e-16 -6.1581695
0.81631858 -0.05 -0.024894447 -53.458622 1.8389709e-15 -6.0536625
0.81008112 -0.05 -0.025601484 -52.967751 1.2620983e-15 -5.9511643
0.80384302 -0.05 -0.026303013 -52.471472 -3.9219879e-16 -5.8492045
0.79760432 -0.05 -0.026999067 -51.988542 1.32809e-16 -5.7493456
0.791365 -0.05 -0.027689599 -51.481179 -1.7061068e-16 -5.6478709
0.78512509 -0.05 -0.028374697 -50.9861 -9.6255857e-16 -5.5482601
0.77888458 -0.05 -0.029054325 -50.472626 -1.5476124e-15 -5.4473057
0.77264347 -0.05 -0.029728453 -49.976921 1.8282689e-15 -5.3491215
0.76640177 -0.05 -0.03039714 -49.45819 -1.3133005e-15 -5.2493729
0.7601595 -0.05 -0.031060373 -48.944598 1.7696979e-17 -5.1506691
0.75391664 -0.05 -0.031718142 -48.422902 6.3347093e-16 -5.05221
0.74767321 -0.05 -0.032370418 -47.91564 -8.9420828e-16 -4.9553989
0.7414292 -0.05 -0.033017187 -47.392954 6.0267171e-16 -4.8581978
0.73518463 -0.05 -0.033658433 -46.869478 -3.5154416e-16 -4.7614713
0.72893949 -0.05 -0.034294121 -46.33368 -5.3913618e-16 -4.6647478
0.7226938 -0.05 -0.034924285 -45.804881 1.7537377e-15 -4.5693076
0.71644754 -0.05 -0.035548954 -45.265542 2.78645e-16 -4.4735233
0.71020073 -0.05 -0.036167954 -44.721527 -1.2369632e-15 -4.3779453
0.70395335 -0.05 -0.036781335 -44.176245 1.1000894e-16 -4.283862
0.69770542 -0.05 -0.037389063 -43.631187 1.0275295e-15 -4.1895282
0.69145694 -0.05 -0.037991046 -43.083618 3.4565654e-16 -4.0965394
0.68520792 -0.05 -0.038587338 -42.532255 6.2972131e-16 -4.0036039
0.67895834 -0.05 -0.039177844 -41.978734 -1.4464707e-16 -3.9115201
0.67270823 -0.05 -0.039762571 -41.424213 2.8290469e-16 -3.8198982
0.66645756 -0.05 -0.040341405 -40.868634 3.0947444e-17 -3.7286823
0.66020634 -0.05 -0.040914244 -40.309848 -7.3665867e-18 -3.6385142
0.65395459 -0.05 -0.041481174 -39.75257 -6.4774404e-16 -3.5492917
0.64770229 -0.05 -0.042042109 -39.191834 -2.4907973e-16 -3.46002
0.64144943 -0.05 -0.042596881 -38.633946 -1.9568641e-16 -3.3717714
0.63519603 -0.05 -0.043145459 -38.074026 6.4026343e-16 -3.284391
0.6289421 -0.05 -0.043687844 -37.51707 3.4273557e-16 -3.1978898
0.62268762 -0.05 -0.0442239 -36.957541 1.1291706e-16 -3.1117251
0.6164326 -0.05 -0.044753541 -36.402121 7.8335044e-16 -3.0269083
0.61017703 -0.05 -0.045276763 -35.846397 8.4768397e-16 -2.9427245
0.60392091 -0.05 -0.045793423 -35.292555 3.3870997e-16 -2.8591728
0.59766426 -0.05 -0.04630345 -34.736853 8.4776494e-16 -2.7765498
0.59140706 -0.05 -0.046806759 -34.185473 -1.1474339e-15 -2.6946577
0.58514931 -0.05 -0.047303258 -33.635038 1.0659475e-15 -2.6137835
0.57889101 -0.05 -0.047792831 -33.087769 5.3035711e-16 -2.5334507
0.57263217 -0.05 -0.048275336 -32.539746 -4.0695229e-16 -2.4541613
0.56637279 -0.05 -0.048750738 -31.996608 4.4301715e-16 -2.375871
0.56011287 -0.05 -0.049218915 -31.454775 6.4256366e-16 -2.2982378
0.55385239 -0.05 -0.049679707 -30.914631 -5.1680148e-16 -2.2213641
0.54759137 -0.05 -0.05013304 -30.374173 6.4029309e-17 -2.1454349
0.54132981 -0.05 -0.050578753 -29.837595 -2.4917816e-16 -2.0701247
0.53506769 -0.05 -0.051016708 -29.3027 4.2956286e-16 -1.9960134
0.52880503 -0.05 -0.051446831 -28.770955 -5.2759979e-16 -1.9225713
0.52254183 -0.05 -0.051868953 -28.239508 -1.5289589e-16 -1.8499378
0.51627809 -0.05 -0.052282931 -27.712288 1.3361322e-15 -1.7782138
0.51001379 -0.05 -0.052688595 -27.186566 7.8477379e-16 -1.7072159
0.50374897 -0.05 -0.05308581 -26.662125 -1.0130634e-16 -1.6370257
0.4974836 -0.05 -0.053474451 -26.137346 1.1420333e-15 -1.5674388
0.49121769 -0.05 -0.053854322 -25.615624 5.7288234e-16 -1.4984024
0.48495124 -0.05 -0.054225217 -25.095384 3.488064e-16 -1.4295169
0.47868427 -0.05 -0.054587014 -24.577512 -6.688825e-16 -1.361656
0.47241677 -0.05 -0.054939574 -24.060566 2.6245045e-16 -1.2948775
0.46614875 -0.05 -0.055282645 -23.546688 8.5704187e-17 -1.22924
0.45988019 -0.05 -0.055616015 -23.034745 1.8332679e-16 -1.1649638
0.45361112 -0.05 -0.055939521 -22.52503 -1.1196329e-15 -1.1020157
0.44734155 -0.05 -0.056252978 -22.017663 -3.6629456e-16 -1.0403682
0.44107146 -0.05 -0.056556161 -21.515291 3.5758578e-16 -0.98027911
0.43480088 -0.05 -0.056848831 -21.014377 -4.2102817e-16 -0.9216749
0.4285298 -0.05 -0.057130775 -20.51309 -7.5352328e-17 -0.86425069
0.42225824 -0.05 -0.057401796 -20.006749 5.5073812e-17 -0.80776732
0.41598621 -0.05 -0.057661644 -19.503145 -1.9817536e-16 -0.75257521
0.40971372 -0.05 -0.057910043 -19.000249 3.4095537e-16 -0.69870017
0.40344078 -0.05 -0.058146765 -18.500041 -2.084093e-16 -0.64631559
0.3971674 -0.05 -0.058371527 -18.002515 -5.5690201e-17 -0.59501489
0.39089359 -0.05 -0.058584019 -17.506399 -4.9046741e-16 -0.54545125
0.38461937 -0.05 -0.058784027 -17.013945 8.7719841e-17 -0.49748299
0.37834475 -0.05 -0.058971308 -16.527853 -2.9610321e-16 -0.45155936
0.37206976 -0.05 -0.059145467 -16.051049 1.3374943e-16 -0.40698605
0.36579441 -0.05 -0.05930618 -15.585713 -4.4947306e-17 -0.36496797
0.35951872 -0.05 -0.059453209 -15.14103 -2.1453816e-16 -0.32510965
0.35324272 -0.05 -0.059586213 -14.724263 6.5022591e-17 -0.28753314
0.34696644 -0.05 -0.05970484 -14.33787 -3.3554402e-17 -0.25081881
0.34068988 -0.05 -0.0598087 -13.976904 9.5947414e-17 -0.21471467
0.3344131 -0.05 -0.059897464 -13.635253 -3.4437466e-17 -0.17859933
0.32813613 -0.05 -0.059970741 -13.306162 2.282846e-17 -0.14306332
0.32185898 -0.05 -0.060028107 -12.98498 -5.7725363e-17 -0.10855362
0.31558171 -0.05 -0.060069173 -12.673213 -3.8128445e-18 -0.070664148
0.30930435 -0.05 -0.060093524 -12.384162 -6.7876736e-19 -0.032020461
0.30302694 -0.05 -0.060100726 -12.137522 1.2911062e-18 0.0048324203
0.29727253 -0.05 0.059916084 -8.8454167 2.4837475e-18 -0.013360414
0.29163529 -0.05 0.059913144 -9.0486424 1.0961994e-17 -0.036653688
0.28607923 -0.05 0.059895677 -9.2546999 2.912229e-17 -0.061466827
0.28060322 -0.05 0.059863896 -9.4568948 2.5914823e-17 -0.087172226
0.27520613 -0.05 0.059818071 -9.6586124 -4.1274056e-17 -0.11518984
0.26988687 -0.05 0.059758502 -9.8601176 -3.3708743e-17 -0.14475643
0.26464436 -0.05 0.059685464 -10.061547 -9.7366081e-17 -0.17534273
0.25947754 -0.05 0.059599205 -10.259235 -7.8007359e-17 -0.20775732
0.25438535 -0.05 0.059500016 -10.458075 2.1767651e-16 -0.24158761
0.24936675 -0.05 0.059388145 -10.657612 1.2583111e-16 -0.27705544
0.24442073 -0.05 0.05926378 -10.856472 1.3538392e-16 -0.3138091
0.23954629 -0.05 0.0591272 -11.050902 -1.7201788e-16 -0.35191355
0.23474241 -0.05 0.058978651 -11.239425 6.6768038e-17 -0.39179802
0.23000814 -0.05 0.058818398 -11.427054 -1.8243113e-16 -0.43333117
0.2253425 -0.05 0.058646687 -11.615435 7.9782159e-17 -0.47672587
0.22074456 -0.05 0.058463691 -11.803937 -3.7961868e-17 -0.52189433
0.21621336 -0.05 0.058269679 -11.995531 1.6886188e-16 -0.56898827
0.21174799 -0.05 0.058064874 -12.191354 -1.6154733e-16 -0.61849465
0.20734754 -0.05 0.057849412 -12.389921 6.083904e-17 -0.67007332
0.20301111 -0.05 0.057623559 -12.591273 -6.1882239e-17 -0.72377154
0.19873784 -0.05 0.057387533 -12.795404 4.4802618e-16 -0.77976461
0.19452684 -0.05 0.057141567 -13.001935 -1.1077508e-16 -0.83788545
0.19037724 -0.05 0.056885865 -13.211778 -3.7050941e-16 -0.89880976
0.18628822 -0.05 0.056620515 -13.425403 -5.9993492e-17 -0.96206807
0.18225895 -0.05 0.056345773 -13.646496 2.6742252e-16 -1.0274706
0.17828859 -0.05 0.05606183 -13.879942 8.1690776e-17 -1.0958554
0.17437634 -0.05 0.055768849 -14.12826 -2.5234788e-16 -1.1669879
0.17052141 -0.05 0.055467041 -14.394147 3.838109e-16 -1.2417407
0.16672302 -0.05 0.05515657 -14.676309 -1.6763815e-16 -1.3201829
0.16298038 -0.05 0.054837574 -14.971968 -2.1496531e-16 -1.4026883
0.15929275 -0.05 0.054510187 -15.276573 5.3698387e-16 -1.4887446
0.15565936 -0.05 0.054174634 -15.587232 4.7116964e-16 -1.5786993
0.1520795 -0.05 0.053831032 -15.900927 -1.1420709e-16 -1.6729132
0.14855243 -0.05 0.053479525 -16.214773 2.5864849e-16 -1.7706328
0.14507742 -0.05 0.053120263 -16.527911 -6.1074358e-16 -1.8719721
0.14165379 -0.05 0.052753343 -16.838355 4.9838236e-16 -1.9766466
0.13828083 -0.05 0.052378924 -17.145584 -4.4049406e-16 -2.0846859
0.13495787 -0.05 0.051997123 -17.448631 -4.2263434e-16 -2.1957902
0.13168423 -0.05 0.051608111 -17.747821 -3.6272332e-16 -2.3101144
0.12845925 -0.05 0.051212 -18.042667 -2.8822968e-16 -2.4283
0.12528229 -0.05 0.050808816 -18.331694 3.8682632e-16 -2.5495825
0.1221527 -0.05 0.050398746 -18.615226 -6.8989294e-17 -2.6746542
0.11906983 -0.05 0.04998191 -18.893292 -1.0552317e-16 -2.8037972
0.1160331 -0.05 0.049558325 -19.1641 4.8681553e-16 -2.9365067
0.1130419 -0.05 0.049128066 -19.42723 6.9436122e-17 -3.0726082
0.11009561 -0.05 0.048691265 -19.682356 1.1248263e-16 -3.2119191
0.10719366 -0.05 0.048247958 -19.928564 9.031453e-16 -3.3545904
0.10433547 -0.05 0.047798234 -20.167336 -5.9395481e-17 -3.5003417
0.10152045 -0.05 0.047342251 -20.399418 -2.6201273e-17 -3.6502808
0.098748067 -0.05 0.046879952 -20.622487 -2.3849979e-17 -3.80378
0.096017782 -0.05 0.046411391 -20.83707 -9.4802536e-16 -3.9603456
0.093329038 -0.05 0.045936711 -21.044036 -6.0462163e-16 -4.1210484
0.090681334 -0.05 0.045455828 -21.240805 -6.2661783e-16 -4.2849711
0.088074148 -0.05 0.044968805 -21.428429 -1.5404209e-16 -4.4517279
0.085506972 -0.05 0.044475709 -21.607043 -4.7612029e-16 -4.6217465
0.08297931 -0.05 0.043976565 -21.777344 3.2490664e-16 -4.7947669
0.080490675 -0.05 0.043471415 -21.938042 1.6253823e-16 -4.9720609
0.078040619 -0.05 0.042960153 -22.083772 2.3964614e-17 -5.1516099
0.075628685 -0.05 0.04244277 -22.214524 -7.1797129e-16 -5.3331292
0.073254404 -0.05 0.041919338 -22.330982 -6.5344347e-16 -5.5172034
0.070917334 -0.05 0.041389873 -22.432418 2.2348707e-16 -5.7042057
0.06861707 -0.05 0.040854263 -22.516606 -1.6332668e-17 -5.8931752
0.066353199 -0.05 0.040312465 -22.583956 4.0002904e-16 -6.0838372
0.064125311 -0.05 0.039764475 -22.634236 -1.2388131e-15 -6.2767349
0.061933028 -0.05 0.039210198 -22.666248 -3.9340382e-16 -6.4722953
0.059775983 -0.05 0.038649549 -22.678827 -7.7018449e-17 -6.6700907
0.057653812 -0.05 0.038082465 -22.672366 -1.0684206e-16 -6.8694953
0.055566175 -0.05 0.037508842 -22.64621 -7.1023332e-17 -7.070221
0.053512721 -0.05 0.036928644 -22.601586 -8.0920971e-16 -7.2734778
0.051493161 -0.05 0.036341682 -22.535077 -1.8960573e-16 -7.4777782
0.049507204 -0.05 0.035747802 -22.447782 -3.3160581e-17 -7.6832809
0.047554548 -0.05 0.035146937 -22.339512 -4.4682379e-16 -7.8899712
0.045634938 -0.05 0.034538903 -22.210039 -8.7718381e-16 -8.0983714
0.043748141 -0.05 0.033923513 -22.057933 2.6505651e-16 -8.3075746
0.041893965 -0.05 0.033300489 -21.881774 -5.5394491e-16 -8.5166402
0.04007221 -0.05 0.032669637 -21.682087 2.8841859e-16 -8.7253111
0.038282681 -0.05 0.032030806 -21.459587 -2.1570913e-16 -8.934514
0.036525244 -0.05 0.03138371 -21.212473 -1.30751e-15 -9.1433898
0.034799801 -0.05 0.03072804 -20.940353 3.0048962e-16 -9.3514085
0.033106276 -0.05 0.030063481 -20.640555 5.0062471e-16 -9.5572727
0.031444619 -0.05 0.029389718 -20.312174 -1.1088351e-15 -9.7617856
0.029814825 -0.05 0.028706399 -19.960541 -9.6238673e-18 -9.9609487
0.028216953 -0.05 0.02801309 -19.583021 -7.2374309e-16 -10.155777
0.026651072 -0.05 0.027309411 -19.174421 4.3294063e-16 -10.346626
0.025117335 -0.05 0.026594878 -18.734506 2.1389671e-16 -10.529559
0.023615953 -0.05 0.025868973 -18.262 2.9536496e-16 -10.703516
0.02214719 -0.05 0.02513119 -17.755766 -6.4710703e-16 -10.867518
0.020711429 -0.05 0.024380901 -17.215251 -8.6852831e-16 -11.018654
0.019309082 -0.05 0.023617536 -16.641065 -2.3950904e-16 -11.156654
0.017940725 -0.05 0.022840372 -16.030333 -4.5913184e-16 -11.276083
0.01660702 -0.05 0.022048653 -15.383245 -3.6346509e-16 -11.375325
0.015308724 -0.05 0.021241638 -14.698828 8.9158919e-16 -11.449398
0.014046784 -0.05 0.020418484 -13.976768 2.5446065e-16 -11.495124
0.012822327 -0.05 0.019578332 -13.217088 7.1183391e-16 -11.506583
0.011636676 -0.05 0.018720293 -12.420877 -5.9135313e-16 -11.480861
0.010491383 -0.05 0.017843373 -11.587507 -4.9560666e-16 -11.408437
0.009388197 -0.05 0.01694652 -10.716945 -1.0855525e-15 -11.278524
0.0083291834 -0.05 0.016028882 -9.8118669 5.0777592e-16 -11.084326
0.0073168316 -0.05 0.015089617 -8.8797917 1.8381694e-16 -10.823804
0.0063538738 -0.05 0.01412764 -7.9282272 6.3744921e-17 -10.481298
0.0054433672 -0.05 0.013142222 -6.9591706 -7.0141934e-16 -10.052604
0.0045890445 -0.05 0.012133195 -5.9863921 -5.4289999e-16 -9.5169967
0.0037947757 -0.05 0.011100179 -5.0266705 2.505168e-16 -8.8620786
0.0030646485 -0.05 0.010043346 -4.0986331 -6.320257e-17 -8.090248
0.0024034029 -0.05 0.0089640119 -3.2237993 3.8714685e-17 -7.2093999
0.0018156153 -0.05 0.0078636429 -2.423116 2.020691e-16 -6.2287241
0.0013056297 -0.05 0.0067447316 -1.7135628 -1.4931258e-16 -5.169151
0.00087737771 -0.05 0.0056113097 -1.1220796 -4.2280814e-17 -4.06444
0.00053394581 -0.05 0.0044677731 -0.68192123 -2.383786e-16 -2.9611175
0.00027709405 -0.05 0.0033194245 -0.39787292 -2.1733919e-16 -1.8900232
0.00010691455 -0.05 0.0021723216 -0.23997673 -1.5698762e-16 -1.0230808
2.1919389e-05 -0.05 0.0010325318 -0.17063738 -2.0233935e-17 -0.37313067
0.99689322 -0.05 -0.00094024782 0.50162378 1.4690125e-17 0.069663261
0.99068175 -0.05 -3.2827985e-05 0.12407834 -3.4001459e-16 -0.018200406
0.98446924 -0.05 0.00086760638 0.055109124 1.7846294e-17 -0.0051222781
0.97825574 -0.05 0.0017610821 0.071759231 -2.5396589e-16 -0.0066490801
0.97204125 -0.05 0.0026477052 0.071998834 -1.8741356e-16 -0.0069235567
0.96582582 -0.05 0.0035276343 0.068172265 -2.9848151e-16 -0.0064462722
0.95960944 -0.05 0.0044008521 0.065874268 -5.4999558e-16 -0.0059918623
0.95339213 -0.05 0.0052674221 0.061992283 3.0851023e-16 -0.0057314358
0.94717393 -0.05 0.0061274991 0.059287733 5.9655032e-16 -0.0052861447
0.94095482 -0.05 0.0069811675 0.055636599 9.9458771e-17 -0.0048082287
0.93473485 -0.05 0.0078284323 0.051597412 -7.4865304e-16 -0.0042780592
0.92851402 -0.05 0.0086693535 0.047244645 -5.1261146e-17 -0.0037518596
0.92229235 -0.05 0.0095040077 0.042572458 6.7343322e-16 -0.0031939397
0.91606984 -0.05 0.01033243 0.037603912 -9.3809139e-16 -0.0025987314
0.90984653 -0.05 0.011154771 0.032377476 6.5333323e-17 -0.0020009968
0.90362241 -0.05 0.011971029 0.026762087 4.3332523e-16 -0.0013634502
0.89739751 -0.05 0.012781234 0.021142997 -3.1378032e-16 -0.00069609874
0.89117183 -0.05 0.013585523 0.015064095 2.4822704e-16 3.2692547e-05
0.8849454 -0.05 0.014383911 0.0086011224 -4.2393645e-17 0.00082087103
0.8787182 -0.05 0.015176338 0.0021505709 5.2027459e-16 0.0015204998
0.87249027 -0.05 0.015962945 -0.0043736317 4.6396162e-16 0.0021093901
0.86626161 -0.05 0.016743797 -0.011523525 -2.1166502e-16 0.0028036192
0.86003223 -0.05 0.017518868 -0.017132987 4.9901454e-16 0.0034574626
0.85380216 -0.05 0.018288242 -0.022825382 -8.7430198e-16 0.0041950997
0.84757137 -0.05 0.019051983 -0.028907774 5.295563e-16 0.0049801763
0.84133991 -0.05 0.019810078 -0.03575079 4.8469378e-16 0.0059085166
0.83510776 -0.05 0.020562489 -0.043173107 -3.7882388e-16 0.006811936
0.82887493 -0.05 0.021309394 -0.051243752 2.9379018e-16 0.0078239154
0.82264145 -0.05 0.022050749 -0.060447542 -9.2895939e-16 0.0089336319
0.81640731 -0.05 0.022786511 -0.070048058 2.0096007e-16 0.010109529
0.81017251 -0.05 0.023516757 -0.081122477 5.2713805e-16 0.011287558
0.80393708 -0.05 0.024241499 -0.093332107 6.1562979e-16 0.012595262
0.79770101 -0.05 0.024960767 -0.10692973 9.2280367e-16 0.013996908
0.79146431 -0.05 0.025674517 -0.12129606 -7.8359493e-16 0.015513255
0.78522699 -0.05 0.026382834 -0.13725758 -3.0809694e-16 0.017060904
0.77898906 -0.05 0.027085685 -0.15413221 -1.3017749e-16 0.018735893
0.7727505 -0.05 0.027783035 -0.17173729 -1.0735173e-15 0.020383395
0.76651134 -0.05 0.028474949 -0.1896955 -8.6453648e-16 0.022061996
0.76027156 -0.05 0.029161411 -0.20933526 1.0680233e-16 0.023839937
0.7540312 -0.05 0.02984241 -0.22986355 -1.2492581e-16 0.025737104
0.74779024 -0.05 0.030517919 -0.25148533 -5.1511745e-16 0.027596718
0.74154869 -0.05 0.031187922 -0.27314267 -3.8962734e-16 0.029324548
0.73530655 -0.05 0.031852406 -0.2959994 1.386197e-16 0.031185518
0.72906382 -0.05 0.032511333 -0.31948968 9.6340803e-17 0.033043944
0.72282051 -0.05 0.033164738 -0.34322458 -2.820929e-16 0.034918877
0.71657662 -0.05 0.033812651 -0.36801756 2.8465838e-17 0.036817885
0.71033215 -0.05 0.034454896 -0.39378876 1.9526993e-17 0.038927533
0.70408711 -0.05 0.035091524 -0.41999385 5.6674409e-16 0.041002702
0.69784148 -0.05 0.035722503 -0.44706493 -6.6368552e-16 0.043094405
0.69159528 -0.05 0.036347737 -0.47430791 -1.4488551e-16 0.045080702
0.68534852 -0.05 0.036967284 -0.5026009 2.5440097e-16 0.047233298
0.67910119 -0.05 0.037581044 -0.5318113 -6.0857019e-16 0.049326606
0.67285329 -0.05 0.03818903 -0.56208034 -5.6744565e-16 0.051473509
0.66660482 -0.05 0.038791124 -0.59417954 1.7136776e-16 0.053726972
0.66035577 -0.05 0.039387226 -0.62718871 -3.1738687e-16 0.056111455
0.65410617 -0.05 0.03997742 -0.66145743 -9.8623931e-17 0.058538923
0.647856 -0.05 0.040561621 -0.69655221 -1.1416098e-16 0.060968175
0.64160526 -0.05 0.041139662 -0.73234523 2.1048061e-16 0.063373164
0.63535395 -0.05 0.041711511 -0.76923745 3.6779945e-16 0.06579751
0.62910208 -0.05 0.042277168 -0.80891678 5.7258705e-17 0.068364609
0.62284964 -0.05 0.042836498 -0.85138759 2.6514969e-16 0.071115768
0.61659663 -0.05 0.043389416 -0.89643022 6.2990088e-17 0.07404093
0.61034305 -0.05 0.043935917 -0.94642846 -1.2216594e-16 0.077295954
0.6040889 -0.05 0.044475858 -1.0025166 1.2878948e-16 0.080934629
0.59783419 -0.05 0.045009168 -1.0668283 1.7258559e-17 0.084963375
0.5915789 -0.05 0.045535761 -1.1392142 -2.266823e-16 0.089437667
0.58532304 -0.05 0.046055547 -1.2166353 -3.9035406e-16 0.094185015
0.57906662 -0.05 0.04656841 -1.300901 9.8234255e-17 0.099456384
0.57280961 -0.05 0.047074205 -1.3919328 -4.5165838e-16 0.10495947
0.56655205 -0.05 0.047572901 -1.4881255 5.748571e-18 0.11068724
0.5602939 -0.05 0.048064374 -1.5867822 1.4466661e-16 0.11636985
0.55403518 -0.05 0.048548462 -1.6878848 1.6200431e-16 0.12198447
0.5477759 -0.05 0.049025096 -1.7914663 -2.8967633e-17 0.12756809
0.54151604 -0.05 0.049494112 -1.8973854 2.0128662e-16 0.13304398
0.53525559 -0.05 0.04995537 -2.0044292 2.3238582e-16 0.13822452
0.52899458 -0.05 0.050408799 -2.1150247 -1.8111207e-17 0.14340639
0.52273299 -0.05 0.050854229 -2.2282461 -9.848415e-17 0.14843945
0.51647083 -0.05 0.051291516 -2.3438298 1.5969731e-16 0.15328865
0.5102081 -0.05 0.051720492 -2.4621264 -4.344441e-17 0.15791182
0.50394478 -0.05 0.052141021 -2.5837794 -2.9644985e-17 0.16245714
0.49768091 -0.05 0.052552979 -2.7090511 -1.911402e-16 0.16685544
0.49141646 -0.05 0.052956167 -2.8378346 -1.8853858e-16 0.17107326
0.48515144 -0.05 0.053350384 -2.969387 3.2742374e-16 0.17497675
0.47888585 -0.05 0.053735502 -3.105151 -8.6449195e-18 0.17870927
0.4726197 -0.05 0.054111386 -3.2464973 -1.7310034e-17 0.18220645
0.466353 -0.05 0.054477784 -3.3939043 8.3867074e-16 0.18547566
0.46008574 -0.05 0.054834482 -3.5463775 -8.2024724e-17 0.18845804
0.45381791 -0.05 0.055181318 -3.7052143 -8.8310183e-16 0.19128241
0.44754954 -0.05 0.055518108 -3.8704688 5.4265897e-17 0.19379502
0.44128063 -0.05 0.055844627 -4.0421316 -3.7179388e-16 0.19594493
0.43501118 -0.05 0.056160632 -4.217694 5.5996331e-19 0.19755399
0.4287412 -0.05 0.056465914 -4.3991095 -1.2049354e-16 0.19887605
0.42247069 -0.05 0.056760276 -4.5853912 -2.1418054e-16 0.19947206
0.41619967 -0.05 0.057043466 -4.7778783 -2.1641414e-16 0.19908571
0.40992815 -0.05 0.057315208 -4.9734726 4.7857765e-17 0.19733485
0.40365613 -0.05 0.057575275 -5.1715341 5.5075851e-17 0.19532877
0.39738362 -0.05 0.057823384 -5.3736333 -2.1257038e-16 0.19280627
0.39111065 -0.05 0.058059226 -5.5766883 -2.1263495e-16 0.18909963
0.38483722 -0.05 0.058282584 -5.7832925 -1.3849895e-16 0.18500504
0.37856335 -0.05 0.058493217 -5.9921745 2.5864438e-16 0.17935892
0.37228904 -0.05 0.058690729 -6.2040564 3.1763175e-16 0.17267515
0.36601433 -0.05 0.058874798 -6.4188837 -1.9613715e-16 0.16495611
0.35973924 -0.05 0.059045182 -6.6386545 2.2194285e-16 0.15658841
0.35346378 -0.05 0.059201545 -6.8596892 5.5620269e-17 0.14657555
0.34718798 -0.05 0.05934353 -7.0811597 -1.8872125e-18 0.13544311
0.34091186 -0.05 0.05947075 -7.3008867 1.3070342e-18 0.12259956
0.33463545 -0.05 0.059582875 -7.5205987 6.5610005e-17 0.10887181
0.32835879 -0.05 0.059679514 -7.7362009 4.8015232e-17 0.093387332
0.32208191 -0.05 0.059760242 -7.941897 -8.9108545e-17 0.076816924
0.31580483 -0.05 0.059824671 -8.1379296 1.0719306e-17 0.057893636
0.3095276 -0.05 0.059872385 -8.3403305 -4.9165223e-17 0.035029224
0.30325026 -0.05 0.059902949 -8.5763293 1.5434092e-17 0.0092147561
