# yPlus  FACE_DATA 448
# x y z  yPlus
0.2970492 -0.05 -0.060091611 29.78523
0.29141201 -0.05 -0.06006769 29.32987
0.28585605 -0.05 -0.060029545 28.909409
0.28038019 -0.05 -0.059977383 28.500371
0.27498332 -0.05 -0.059911471 28.099595
0.26966432 -0.05 -0.059832104 27.712298
0.26442212 -0.05 -0.059739554 27.33132
0.25925565 -0.05 -0.059634065 26.962454
0.25416387 -0.05 -0.059515925 26.600659
0.24914572 -0.05 -0.059385377 26.251497
0.2442002 -0.05 -0.059242604 25.912191
0.23932629 -0.05 -0.059087883 25.583287
0.23452301 -0.05 -0.058921455 25.260346
0.22978937 -0.05 -0.058743583 24.939795
0.2251244 -0.05 -0.058554508 24.62669
0.22052716 -0.05 -0.058354401 24.322382
0.21599672 -0.05 -0.058143525 24.026653
0.21153215 -0.05 -0.057922103 23.740338
0.20713253 -0.05 -0.057690264 23.460728
0.20279697 -0.05 -0.057448274 23.188439
0.19852461 -0.05 -0.057196345 22.923775
0.19431455 -0.05 -0.056934707 22.665743
0.19016593 -0.05 -0.056663563 22.414848
0.18607793 -0.05 -0.056382997 22.1687
0.1820497 -0.05 -0.056093259 21.927542
0.17808043 -0.05 -0.055794541 21.692514
0.17416931 -0.05 -0.055487001 21.461787
0.17031553 -0.05 -0.055170848 21.237739
0.16651831 -0.05 -0.054846242 21.019374
0.16277689 -0.05 -0.054513318 20.807489
0.1590905 -0.05 -0.054172209 20.600818
0.15545839 -0.05 -0.053823135 20.398757
0.15187983 -0.05 -0.053466212 20.200786
0.14835408 -0.05 -0.05310158 20.005785
0.14488044 -0.05 -0.052729388 19.815709
0.1414582 -0.05 -0.052349727 19.628914
0.13808666 -0.05 -0.051962756 19.446464
0.13476515 -0.05 -0.051568591 19.268971
0.13149298 -0.05 -0.051167398 19.096236
0.12826949 -0.05 -0.050759287 18.929473
0.12509405 -0.05 -0.050344282 18.765098
0.12196601 -0.05 -0.049922566 18.60432
0.11888472 -0.05 -0.049494258 18.448587
0.11584958 -0.05 -0.049059374 18.295524
0.11286 -0.05 -0.048617986 18.145633
0.10991536 -0.05 -0.048170222 17.999495
0.10701508 -0.05 -0.047716116 17.857534
0.10415858 -0.05 -0.047255758 17.717366
0.10134528 -0.05 -0.046789302 17.583246
0.098574635 -0.05 -0.046316688 17.453246
0.095846112 -0.05 -0.045837969 17.324519
0.093159152 -0.05 -0.045353284 17.201595
0.090513257 -0.05 -0.044862549 17.082777
0.087907902 -0.05 -0.044365826 16.964842
0.085342579 -0.05 -0.043863179 16.855348
0.082816792 -0.05 -0.043354631 16.74932
0.080330054 -0.05 -0.042840222 16.650408
0.077881918 -0.05 -0.042319845 16.552678
0.075471926 -0.05 -0.041793489 16.454896
0.073099611 -0.05 -0.041261223 16.358851
0.070764528 -0.05 -0.040723064 16.268162
0.068466272 -0.05 -0.040178896 16.181278
0.066204432 -0.05 -0.039628677 16.09623
0.063978599 -0.05 -0.039072398 16.015814
0.061788396 -0.05 -0.038509966 15.939161
0.059633452 -0.05 -0.037941293 15.865563
0.057513406 -0.05 -0.037366314 15.795321
0.055427918 -0.05 -0.036784925 15.729451
0.053376638 -0.05 -0.036197089 15.667894
0.051359276 -0.05 -0.035602613 15.613829
0.049375544 -0.05 -0.035001346 15.558422
0.047425137 -0.05 -0.034393218 15.511599
0.045507804 -0.05 -0.033778044 15.4703
0.04362331 -0.05 -0.033155635 15.436779
0.041771466 -0.05 -0.032525714 15.407612
0.039952072 -0.05 -0.031888087 15.381144
0.038164932 -0.05 -0.0312426 15.361231
0.036409917 -0.05 -0.030588967 15.348409
0.034686926 -0.05 -0.02992688 15.338095
0.032995886 -0.05 -0.029256022 15.332333
0.031336749 -0.05 -0.02857608 15.329446
0.029709509 -0.05 -0.027886699 15.332386
0.028114228 -0.05 -0.027187448 15.334684
0.026550977 -0.05 -0.026477946 15.339241
0.02501991 -0.05 -0.025757709 15.347868
0.02352124 -0.05 -0.025026222 15.355059
0.022055232 -0.05 -0.024282977 15.354628
0.020622275 -0.05 -0.023527349 15.33066
0.019222779 -0.05 -0.02275877 15.268427
0.017857323 -0.05 -0.021976519 15.187126
0.016526574 -0.05 -0.021179842 15.097509
0.015231291 -0.05 -0.020368001 15.058491
0.013972424 -0.05 -0.019540155 15.145501
0.012751102 -0.05 -0.018695452 15.389389
0.011568653 -0.05 -0.017833006 15.78789
0.010426631 -0.05 -0.016951829 16.366159
0.0093267907 -0.05 -0.016050877 17.121084
0.0082711998 -0.05 -0.015129303 18.063632
0.0072623509 -0.05 -0.014186278 19.025552
0.00630298 -0.05 -0.013220723 19.827136
0.0053961474 -0.05 -0.012231923 20.385645
0.0045455861 -0.05 -0.011219723 20.715157
0.0037551676 -0.05 -0.010183758 20.762568
0.0030289787 -0.05 -0.0091242153 20.481299
0.0023717549 -0.05 -0.0080424273 19.893067
0.0017880668 -0.05 -0.0069398782 18.971167
0.0012822491 -0.05 -0.0058190765 17.639715
0.00085821863 -0.05 -0.0046840686 15.897415
0.00051904518 -0.05 -0.0035392618 13.680409
0.00026646921 -0.05 -0.0023899652 10.80578
0.00010056026 -0.05 -0.0012422368 7.7662372
1.9807834e-05 -0.05 -0.00010213859 3.9480815
0.99689154 -0.05 -0.0018395987 71.260476
0.99067673 -0.05 -0.0027238939 68.035086
0.98446092 -0.05 -0.0036012 68.975051
0.97824414 -0.05 -0.0044715436 68.793341
0.9720264 -0.05 -0.0053350311 68.756857
0.96580774 -0.05 -0.0061918211 68.644945
0.95958815 -0.05 -0.0070418962 68.513369
0.95336766 -0.05 -0.0078853202 68.359147
0.94714629 -0.05 -0.0087222479 68.187447
0.94092405 -0.05 -0.0095527637 68.003938
0.93470098 -0.05 -0.010376873 67.804798
0.92847707 -0.05 -0.011194635 67.601783
0.92225232 -0.05 -0.012006127 67.388735
0.91602677 -0.05 -0.012811384 67.169113
0.90980044 -0.05 -0.013610557 66.934306
0.90357333 -0.05 -0.014403644 66.691031
0.89734546 -0.05 -0.015190676 66.43411
0.89111683 -0.05 -0.015971788 66.181701
0.88488747 -0.05 -0.016746996 65.917067
0.87865737 -0.05 -0.017516241 65.654807
0.87242655 -0.05 -0.018279662 65.376936
0.86619503 -0.05 -0.019037327 65.112443
0.85996281 -0.05 -0.019789207 64.843834
0.85372991 -0.05 -0.020535389 64.575421
0.84749632 -0.05 -0.021275935 64.285535
0.84126208 -0.05 -0.022010832 63.99772
0.83502717 -0.05 -0.022740043 63.710692
0.82879161 -0.05 -0.023463744 63.423333
0.82255541 -0.05 -0.024181894 63.131987
0.81631858 -0.05 -0.024894447 62.830069
0.81008112 -0.05 -0.025601484 62.537753
0.80384302 -0.05 -0.026303013 62.239149
0.79760432 -0.05 -0.026999067 61.954637
0.791365 -0.05 -0.027689599 61.647032
0.78512509 -0.05 -0.028374697 61.348348
0.77888458 -0.05 -0.029054325 61.032064
0.77264347 -0.05 -0.029728453 60.731701
0.76640177 -0.05 -0.03039714 60.410885
0.7601595 -0.05 -0.031060373 60.092583
0.75391664 -0.05 -0.031718142 59.765372
0.74767321 -0.05 -0.032370418 59.451552
0.7414292 -0.05 -0.033017187 59.125155
0.73518463 -0.05 -0.033658433 58.797352
0.72893949 -0.05 -0.034294121 58.457358
0.7226938 -0.05 -0.034924285 58.123092
0.71644754 -0.05 -0.035548954 57.779722
0.71020073 -0.05 -0.036167954 57.430956
0.70395335 -0.05 -0.036781335 57.078844
0.69770542 -0.05 -0.037389063 56.727091
0.69145694 -0.05 -0.037991046 56.371895
0.68520792 -0.05 -0.038587338 56.012161
0.67895834 -0.05 -0.039177844 55.64888
0.67270823 -0.05 -0.039762571 55.282728
0.66645756 -0.05 -0.040341405 54.914625
0.66020634 -0.05 -0.040914244 54.5412
0.65395459 -0.05 -0.041481174 54.166736
0.64770229 -0.05 -0.042042109 53.78673
0.64144943 -0.05 -0.042596881 53.407255
0.63519603 -0.05 -0.043145459 53.023411
0.6289421 -0.05 -0.043687844 52.639425
0.62268762 -0.05 -0.0442239 52.250177
0.6164326 -0.05 -0.044753541 51.862022
0.61017703 -0.05 -0.045276763 51.470575
0.60392091 -0.05 -0.045793423 51.077936
0.59766426 -0.05 -0.04630345 50.679212
0.59140706 -0.05 -0.046806759 50.281574
0.58514931 -0.05 -0.047303258 49.881406
0.57889101 -0.05 -0.047792831 49.481034
0.57263217 -0.05 -0.048275336 49.075699
0.56637279 -0.05 -0.048750738 48.671518
0.56011287 -0.05 -0.049218915 48.26477
0.55385239 -0.05 -0.049679707 47.856063
0.54759137 -0.05 -0.05013304 47.441962
0.54132981 -0.05 -0.050578753 47.027902
0.53506769 -0.05 -0.051016708 46.611295
0.52880503 -0.05 -0.051446831 46.19367
0.52254183 -0.05 -0.051868953 45.77141
0.51627809 -0.05 -0.052282931 45.349465
0.51001379 -0.05 -0.052688595 44.924625
0.50374897 -0.05 -0.05308581 44.496575
0.4974836 -0.05 -0.053474451 44.062512
0.49121769 -0.05 -0.053854322 43.627169
0.48495124 -0.05 -0.054225217 43.188547
0.47868427 -0.05 -0.054587014 42.7474
0.47241677 -0.05 -0.054939574 42.301409
0.46614875 -0.05 -0.055282645 41.853952
0.45988019 -0.05 -0.055616015 41.402993
0.45361112 -0.05 -0.055939521 40.948402
0.44734155 -0.05 -0.056252978 40.489853
0.44107146 -0.05 -0.056556161 40.030835
0.43480088 -0.05 -0.056848831 39.567625
0.4285298 -0.05 -0.057130775 39.097827
0.42225824 -0.05 -0.057401796 38.617081
0.41598621 -0.05 -0.057661644 38.132756
0.40971372 -0.05 -0.057910043 37.642082
0.40344078 -0.05 -0.058146765 37.146677
0.3971674 -0.05 -0.058371527 36.648339
0.39089359 -0.05 -0.058584019 36.143639
0.38461937 -0.05 -0.058784027 35.635706
0.37834475 -0.05 -0.058971308 35.125499
0.37206976 -0.05 -0.059145467 34.619282
0.36579441 -0.05 -0.05930618 34.115946
0.35951872 -0.05 -0.059453209 33.627501
0.35324272 -0.05 -0.059586213 33.162633
0.34696644 -0.05 -0.05970484 32.729976
0.34068988 -0.05 -0.0598087 32.318605
0.3344131 -0.05 -0.059897464 31.925667
0.32813613 -0.05 -0.059970741 31.539556
0.32185898 -0.05 -0.060028107 31.160062
0.31558171 -0.05 -0.060069173 30.783185
0.30930435 -0.05 -0.060093524 30.426837
0.30302694 -0.05 -0.060100726 30.126782
0.29727253 -0.05 0.059916084 25.641555
0.29163529 -0.05 0.059913144 25.815823
0.28607923 -0.05 0.059895677 25.983206
0.28060322 -0.05 0.059863896 26.14854
0.27520613 -0.05 0.059818071 26.305606
0.26988687 -0.05 0.059758502 26.462162
0.26464436 -0.05 0.059685464 26.614752
0.25947754 -0.05 0.059599205 26.765576
0.25438535 -0.05 0.059500016 26.912713
0.24936675 -0.05 0.059388145 27.059503
0.24442073 -0.05 0.05926378 27.202497
0.23954629 -0.05 0.0591272 27.338854
0.23474241 -0.05 0.058978651 27.463988
0.23000814 -0.05 0.058818398 27.58628
0.2253425 -0.05 0.058646687 27.710483
0.22074456 -0.05 0.058463691 27.834529
0.21621336 -0.05 0.058269679 27.961707
0.21174799 -0.05 0.058064874 28.093338
0.20734754 -0.05 0.057849412 28.227607
0.20301111 -0.05 0.057623559 28.364165
0.19873784 -0.05 0.057387533 28.503438
0.19452684 -0.05 0.057141567 28.644362
0.19037724 -0.05 0.056885865 28.788404
0.18628822 -0.05 0.056620515 28.935732
0.18225895 -0.05 0.056345773 29.090015
0.17828859 -0.05 0.05606183 29.256754
0.17437634 -0.05 0.055768849 29.437811
0.17052141 -0.05 0.055467041 29.636025
0.16672302 -0.05 0.05515657 29.849469
0.16298038 -0.05 0.054837574 30.075385
0.15929275 -0.05 0.054510187 30.308384
0.15565936 -0.05 0.054174634 30.545265
0.1520795 -0.05 0.053831032 30.783615
0.14855243 -0.05 0.053479525 31.018755
0.14507742 -0.05 0.053120263 31.251931
0.14165379 -0.05 0.052753343 31.480864
0.13828083 -0.05 0.052378924 31.705819
0.13495787 -0.05 0.051997123 31.925737
0.13168423 -0.05 0.051608111 32.141041
0.12845925 -0.05 0.051212 32.352473
0.12528229 -0.05 0.050808816 32.559016
0.1221527 -0.05 0.050398746 32.759529
0.11906983 -0.05 0.04998191 32.955709
0.1160331 -0.05 0.049558325 33.145907
0.1130419 -0.05 0.049128066 33.330109
0.11009561 -0.05 0.048691265 33.507011
0.10719366 -0.05 0.048247958 33.677934
0.10433547 -0.05 0.047798234 33.842055
0.10152045 -0.05 0.047342251 34.001605
0.098748067 -0.05 0.046879952 34.15575
0.096017782 -0.05 0.046411391 34.302578
0.093329038 -0.05 0.045936711 34.444101
0.090681334 -0.05 0.045455828 34.579684
0.088074148 -0.05 0.044968805 34.706912
0.085506972 -0.05 0.044475709 34.829234
0.08297931 -0.05 0.043976565 34.944136
0.080490675 -0.05 0.043471415 35.053835
0.078040619 -0.05 0.042960153 35.153095
0.075628685 -0.05 0.04244277 35.241362
0.073254404 -0.05 0.041919338 35.318561
0.070917334 -0.05 0.041389873 35.386026
0.06861707 -0.05 0.040854263 35.442284
0.066353199 -0.05 0.040312465 35.48642
0.064125311 -0.05 0.039764475 35.519471
0.061933028 -0.05 0.039210198 35.541353
0.059775983 -0.05 0.038649549 35.550612
0.057653812 -0.05 0.038082465 35.54782
0.055566175 -0.05 0.037508842 35.532992
0.053512721 -0.05 0.036928644 35.505829
0.051493161 -0.05 0.036341682 35.468955
0.049507204 -0.05 0.035747802 35.41737
0.047554548 -0.05 0.035146937 35.355167
0.045634938 -0.05 0.034538903 35.280761
0.043748141 -0.05 0.033923513 35.195247
0.041893965 -0.05 0.033300489 35.098253
0.04007221 -0.05 0.032669637 34.988082
0.038282681 -0.05 0.032030806 34.866684
0.036525244 -0.05 0.03138371 34.735651
0.034799801 -0.05 0.03072804 34.592978
0.033106276 -0.05 0.030063481 34.438828
0.031444619 -0.05 0.029389718 34.270834
0.029814825 -0.05 0.028706399 34.095903
0.028216953 -0.05 0.02801309 33.911932
0.026651072 -0.05 0.027309411 33.714825
0.025117335 -0.05 0.026594878 33.507492
0.023615953 -0.05 0.025868973 33.286797
0.02214719 -0.05 0.02513119 33.054413
0.020711429 -0.05 0.024380901 32.810476
0.019309082 -0.05 0.023617536 32.552133
0.017940725 -0.05 0.022840372 32.284156
0.01660702 -0.05 0.022048653 31.998213
0.015308724 -0.05 0.021241638 31.698452
0.014046784 -0.05 0.020418484 31.379064
0.012822327 -0.05 0.019578332 31.040784
0.011636676 -0.05 0.018720293 30.678189
0.010491383 -0.05 0.017843373 30.289036
0.009388197 -0.05 0.01694652 29.85753
0.0083291834 -0.05 0.016028882 29.377672
0.0073168316 -0.05 0.015089617 28.846125
0.0063538738 -0.05 0.01412764 28.248947
0.0054433672 -0.05 0.013142222 27.559496
0.0045890445 -0.05 0.012133195 26.754591
0.0037947757 -0.05 0.011100179 25.797383
0.0030646485 -0.05 0.010043346 24.660216
0.0024034029 -0.05 0.0089640119 23.313298
0.0018156153 -0.05 0.0078636429 21.7175
0.0013056297 -0.05 0.0067447316 19.82913
0.00087737771 -0.05 0.0056113097 17.623484
0.00053394581 -0.05 0.0044677731 15.07434
0.00027709405 -0.05 0.0033194245 12.058331
0.00010691455 -0.05 0.0021723216 8.8682536
2.1919389e-05 -0.05 0.0010325318 5.3931012
0.99689322 -0.05 -0.00094024782 6.1221316
0.99068175 -0.05 -3.2827985e-05 3.0315752
0.98446924 -0.05 0.00086760638 2.0277151
0.97825574 -0.05 0.0017610821 2.3103151
0.97204125 -0.05 0.0026477052 2.3148583
0.96582582 -0.05 0.0035276343 2.2517983
0.95960944 -0.05 0.0044008521 2.2125269
0.95339213 -0.05 0.0052674221 2.1481514
0.94717393 -0.05 0.0061274991 2.1004413
0.94095482 -0.05 0.0069811675 2.0352185
0.93473485 -0.05 0.0078284323 1.956407
0.92851402 -0.05 0.0086693535 1.8739439
0.92229235 -0.05 0.0095040077 1.7781509
0.91606984 -0.05 0.01033243 1.6723977
0.90984653 -0.05 0.011154771 1.549882
0.90362241 -0.05 0.011971029 1.4097285
0.89739751 -0.05 0.012781234 1.2521201
0.89117183 -0.05 0.013585523 1.0556651
0.8849454 -0.05 0.014383911 0.79598022
0.8787182 -0.05 0.015176338 0.41833716
0.87249027 -0.05 0.015962945 0.59323214
0.86626161 -0.05 0.016743797 0.9367355
0.86003223 -0.05 0.017518868 1.1376434
0.85380216 -0.05 0.018288242 1.3117565
0.84757137 -0.05 0.019051983 1.4748934
0.84133991 -0.05 0.019810078 1.6392492
0.83510776 -0.05 0.020562489 1.7996519
0.82887493 -0.05 0.021309394 1.9601872
0.82264145 -0.05 0.022050749 2.1281126
0.81640731 -0.05 0.022786511 2.2906264
0.81017251 -0.05 0.023516757 2.4636303
0.80393708 -0.05 0.024241499 2.6422208
0.79770101 -0.05 0.024960767 2.8271614
0.79146431 -0.05 0.025674517 3.010124
0.78522699 -0.05 0.026382834 3.2004058
0.77898906 -0.05 0.027085685 3.3909676
0.7727505 -0.05 0.027783035 3.5783668
0.76651134 -0.05 0.028474949 3.7604153
0.76027156 -0.05 0.029161411 3.9486314
0.7540312 -0.05 0.02984241 4.1379392
0.74779024 -0.05 0.030517919 4.3273965
0.74154869 -0.05 0.031187922 4.5094702
0.73530655 -0.05 0.031852406 4.6929793
0.72906382 -0.05 0.032511333 4.8753252
0.72282051 -0.05 0.033164738 5.0525993
0.71657662 -0.05 0.033812651 5.2312803
0.71033215 -0.05 0.034454896 5.410797
0.70408711 -0.05 0.035091524 5.5875919
0.69784148 -0.05 0.035722503 5.7645633
0.69159528 -0.05 0.036347737 5.9372645
0.68534852 -0.05 0.036967284 6.1114887
0.67910119 -0.05 0.037581044 6.2863497
0.67285329 -0.05 0.03818903 6.4626895
0.66660482 -0.05 0.038791124 6.6446213
0.66035577 -0.05 0.039387226 6.8268446
0.65410617 -0.05 0.03997742 7.0108764
0.647856 -0.05 0.040561621 7.1946223
0.64160526 -0.05 0.041139662 7.3771931
0.63535395 -0.05 0.041711511 7.560923
0.62910208 -0.05 0.042277168 7.7535797
0.62284964 -0.05 0.042836498 7.9549518
0.61659663 -0.05 0.043389416 8.1632022
0.61034305 -0.05 0.043935917 8.3885934
0.6040889 -0.05 0.044475858 8.6340736
0.59783419 -0.05 0.045009168 8.9073253
0.5915789 -0.05 0.045535761 9.2049474
0.58532304 -0.05 0.046055547 9.5131981
0.57906662 -0.05 0.04656841 9.8378319
0.57280961 -0.05 0.047074205 10.177131
0.56655205 -0.05 0.047572901 10.523795
0.5602939 -0.05 0.048064374 10.8683
0.55403518 -0.05 0.048548462 11.209697
0.5477759 -0.05 0.049025096 11.549377
0.54151604 -0.05 0.049494112 11.886578
0.53525559 -0.05 0.04995537 12.218502
0.52899458 -0.05 0.050408799 12.552056
0.52273299 -0.05 0.050854229 12.884918
0.51647083 -0.05 0.051291516 13.216537
0.5102081 -0.05 0.051720492 13.547608
0.50394478 -0.05 0.052141021 13.879625
0.49768091 -0.05 0.052552979 14.213442
0.49141646 -0.05 0.052956167 14.54871
0.48515144 -0.05 0.053350384 14.883887
0.47888585 -0.05 0.053735502 15.221773
0.4726197 -0.05 0.054111386 15.565845
0.466353 -0.05 0.054477784 15.916943
0.46008574 -0.05 0.054834482 16.272835
0.45381791 -0.05 0.055181318 16.634035
0.44754954 -0.05 0.055518108 17.002348
0.44128063 -0.05 0.055844627 17.376765
0.43501118 -0.05 0.056160632 17.752639
0.4287412 -0.05 0.056465914 18.13076
0.42247069 -0.05 0.056760276 18.511936
0.41619967 -0.05 0.057043466 18.897529
0.40992815 -0.05 0.057315208 19.282877
0.40365613 -0.05 0.057575275 19.664028
0.39738362 -0.05 0.057823384 20.045789
0.39111065 -0.05 0.058059226 20.423023
0.38483722 -0.05 0.058282584 20.798797
0.37856335 -0.05 0.058493217 21.173148
0.37228904 -0.05 0.058690729 21.544432
0.36601433 -0.05 0.058874798 21.914278
0.35973924 -0.05 0.059045182 22.28548
0.35346378 -0.05 0.059201545 22.655118
0.34718798 -0.05 0.05934353 23.018063
0.34091186 -0.05 0.05947075 23.373231
0.33463545 -0.05 0.059582875 23.720944
0.32835879 -0.05 0.059679514 24.058236
0.32208191 -0.05 0.059760242 24.373725
0.31580483 -0.05 0.059824671 24.66936
0.3095276 -0.05 0.059872385 24.96959
0.30325026 -0.05 0.059902949 25.312271
