# p  FACE_DATA 448
# x y z  p
0.2966314 -0.05 -0.060416402 99459.279
0.29099452 -0.05 -0.060353393 99452.716
0.28543895 -0.05 -0.060276724 99446.549
0.27996358 -0.05 -0.060186594 99440.504
0.2745673 -0.05 -0.060083263 99434.561
0.26924898 -0.05 -0.059967016 99428.77
0.26400754 -0.05 -0.059838119 99423.052
0.25884193 -0.05 -0.05969681 99417.511
0.25375109 -0.05 -0.059543366 99411.973
0.24873397 -0.05 -0.059378026 99406.627
0.24378956 -0.05 -0.059200964 99401.383
0.23891684 -0.05 -0.059012452 99396.273
0.23411482 -0.05 -0.058812723 99391.277
0.22938253 -0.05 -0.058602032 99386.367
0.22471899 -0.05 -0.058380615 99381.581
0.22012324 -0.05 -0.058148636 99376.98
0.21559438 -0.05 -0.057906352 99372.411
0.21113145 -0.05 -0.057653978 99368.043
0.20673354 -0.05 -0.057391639 99363.846
0.20239977 -0.05 -0.057119592 99359.775
0.19812925 -0.05 -0.056838044 99355.9
0.1939211 -0.05 -0.05654722 99352.092
0.18977448 -0.05 -0.056247318 99348.486
0.18568851 -0.05 -0.055938412 99345.132
0.18166239 -0.05 -0.055620749 99341.864
0.17769529 -0.05 -0.055294516 99338.87
0.17378639 -0.05 -0.054959865 99335.988
0.1699349 -0.05 -0.054616997 99333.315
0.16614002 -0.05 -0.054266069 99330.772
0.162401 -0.05 -0.053907211 99328.492
0.15871706 -0.05 -0.053540548 99326.381
0.15508746 -0.05 -0.053166299 99324.404
0.15151146 -0.05 -0.052784571 99322.656
0.14798833 -0.05 -0.0523955 99321.029
0.14451735 -0.05 -0.051999231 99319.618
0.14109782 -0.05 -0.05159585 99318.396
0.13772905 -0.05 -0.051185511 99317.374
0.13441035 -0.05 -0.050768324 99316.603
0.13114103 -0.05 -0.050344451 99315.949
0.12792045 -0.05 -0.049913999 99315.566
0.12474797 -0.05 -0.049476986 99315.337
0.12162292 -0.05 -0.04903359 99315.035
0.11854468 -0.05 -0.048583928 99314.873
0.11551263 -0.05 -0.048128009 99314.969
0.11252618 -0.05 -0.047665901 99315.323
0.10958471 -0.05 -0.047197731 99315.883
0.10668766 -0.05 -0.046723526 99316.806
0.10383442 -0.05 -0.046243371 99317.839
0.10102442 -0.05 -0.045757419 99319.035
0.09825712 -0.05 -0.045265605 99320.503
0.095531982 -0.05 -0.044767978 99322.023
0.092848448 -0.05 -0.044264674 99323.74
0.090206018 -0.05 -0.043755605 99325.895
0.08760417 -0.05 -0.043240828 99328.252
0.085042393 -0.05 -0.042720406 99331.025
0.082520193 -0.05 -0.042194356 99333.764
0.080037083 -0.05 -0.041662717 99336.863
0.077592614 -0.05 -0.041125377 99340.411
0.07518633 -0.05 -0.040582323 99344.249
0.072817762 -0.05 -0.04003362 99348.336
0.070486466 -0.05 -0.039479283 99352.831
0.068192039 -0.05 -0.038919193 99357.851
0.06593407 -0.05 -0.038353303 99363.167
0.063712147 -0.05 -0.037781603 99368.712
0.061525896 -0.05 -0.037203998 99374.577
0.059374947 -0.05 -0.036620397 99380.886
0.057258939 -0.05 -0.036030732 99387.776
0.055177532 -0.05 -0.035434897 99395.288
0.053130378 -0.05 -0.034832851 99403.132
0.051117187 -0.05 -0.034224402 99411.525
0.04913767 -0.05 -0.033609393 99420.283
0.047191527 -0.05 -0.032987756 99429.818
0.045278506 -0.05 -0.032359302 99440.125
0.043398374 -0.05 -0.031723842 99451.349
0.041550942 -0.05 -0.031081096 99463.279
0.039736012 -0.05 -0.030430868 99475.735
0.037953392 -0.05 -0.029773005 99489.204
0.036202951 -0.05 -0.029107219 99503.91
0.034484591 -0.05 -0.0284332 99519.922
0.032798243 -0.05 -0.027750633 99537.262
0.031143861 -0.05 -0.027059203 99555.25
0.029521441 -0.05 -0.026358555 99574.036
0.027931047 -0.05 -0.02564826 99594.742
0.026372753 -0.05 -0.024927935 99617.721
0.024846717 -0.05 -0.024197099 99642.977
0.023353155 -0.05 -0.023455238 99669.746
0.021892336 -0.05 -0.022701847 99697.817
0.020464652 -0.05 -0.0219363 99728.774
0.019070519 -0.05 -0.021158035 99762.694
0.017710521 -0.05 -0.020366335 99799.208
0.016385328 -0.05 -0.01956045 99838.153
0.015095706 -0.05 -0.018739647 99879.71
0.013842609 -0.05 -0.017903092 99924.136
0.012627173 -0.05 -0.017049941 99975.479
0.011450732 -0.05 -0.016179317 100033.36
0.010314848 -0.05 -0.015290243 100099.06
0.0092212812 -0.05 -0.014381686 100172.14
0.0081721058 -0.05 -0.013452815 100252.11
0.00716982 -0.05 -0.012502817 100338.4
0.0062171672 -0.05 -0.011530633 100429.71
0.0053172126 -0.05 -0.010535569 100525.46
0.0044736903 -0.05 -0.0095174955 100628.64
0.003690474 -0.05 -0.0084760745 100738.94
0.0029716494 -0.05 -0.0074115224 100853.79
0.0023219424 -0.05 -0.0063252033 100970.79
0.0017459134 -0.05 -0.0052186334 101086.81
0.0012478794 -0.05 -0.0040943514 101197.19
0.00083172905 -0.05 -0.0029564306 101296.02
0.00050050175 -0.05 -0.0018092995 101378.22
0.00025590096 -0.05 -0.00065827911 101441.42
9.7954239e-05 -0.05 0.00049057204 101480.29
2.510909e-05 -0.05 0.0016312028 101492.78
0.99686083 -0.05 -0.0070184295 100422.18
0.99064004 -0.05 -0.0078596106 100317.35
0.9844183 -0.05 -0.0086937957 100294.06
0.97819563 -0.05 -0.0095210118 100263.1
0.97197205 -0.05 -0.010341365 100240.19
0.9657476 -0.05 -0.011155015 100219.61
0.95952226 -0.05 -0.011961944 100201.7
0.95329607 -0.05 -0.012762215 100185.42
0.94706905 -0.05 -0.013555984 100170.55
0.94084121 -0.05 -0.014343336 100156.71
0.93461256 -0.05 -0.015124275 100143.93
0.92838313 -0.05 -0.015898862 100131.85
0.92215291 -0.05 -0.016667173 100120.55
0.91592193 -0.05 -0.017429243 100109.8
0.90969021 -0.05 -0.018185224 100099.51
0.90345774 -0.05 -0.018935113 100089.76
0.89722456 -0.05 -0.019678942 100080.39
0.89099067 -0.05 -0.020416848 100071.3
0.88475608 -0.05 -0.021148843 100062.57
0.8785208 -0.05 -0.021874871 100054.24
0.87228483 -0.05 -0.02259507 100046.03
0.86604821 -0.05 -0.023309507 100038.14
0.85981093 -0.05 -0.024018156 100030.46
0.85357301 -0.05 -0.024721101 100022.97
0.84733444 -0.05 -0.025418407 100015.59
0.84109525 -0.05 -0.026110057 100008.45
0.83485543 -0.05 -0.026796018 100001.54
0.82861501 -0.05 -0.027476466 99994.544
0.82237398 -0.05 -0.028151358 99987.875
0.81613235 -0.05 -0.028820649 99981.216
0.80989013 -0.05 -0.029484418 99974.751
0.80364732 -0.05 -0.030142676 99968.299
0.79740395 -0.05 -0.030795454 99961.986
0.79115999 -0.05 -0.031442707 99955.785
0.78491548 -0.05 -0.032084521 99949.546
0.77867041 -0.05 -0.032720862 99943.495
0.77242477 -0.05 -0.033351698 99937.459
0.76617859 -0.05 -0.033977091 99931.486
0.75993186 -0.05 -0.034597025 99925.546
0.75368459 -0.05 -0.035211489 99919.655
0.74743679 -0.05 -0.035820459 99913.811
0.74118845 -0.05 -0.036423917 99908.002
0.73493959 -0.05 -0.037021848 99902.239
0.72869019 -0.05 -0.037614218 99896.56
0.72244027 -0.05 -0.03820106 99890.817
0.71618983 -0.05 -0.038782403 99885.042
0.70993888 -0.05 -0.039358073 99879.481
0.7036874 -0.05 -0.039928121 99873.704
0.69743541 -0.05 -0.040492512 99868.143
0.69118291 -0.05 -0.041051153 99862.485
0.6849299 -0.05 -0.041604101 99856.86
0.67867638 -0.05 -0.042151258 99851.244
0.67242236 -0.05 -0.042692634 99845.528
0.66616783 -0.05 -0.043228112 99839.953
0.65991278 -0.05 -0.043757592 99834.374
0.65365724 -0.05 -0.04428116 99828.66
0.6474012 -0.05 -0.044798728 99822.987
0.64114466 -0.05 -0.04531013 99817.365
0.63488761 -0.05 -0.045815334 99811.709
0.62863007 -0.05 -0.046314343 99805.969
0.62237202 -0.05 -0.046807017 99800.324
0.61611347 -0.05 -0.047293273 99794.609
0.60985442 -0.05 -0.047773108 99788.848
0.60359488 -0.05 -0.048246377 99783.136
0.59733484 -0.05 -0.048713008 99777.343
0.5910743 -0.05 -0.049172917 99771.579
0.58481326 -0.05 -0.049626013 99765.716
0.57855171 -0.05 -0.050072181 99759.916
0.57228968 -0.05 -0.050511275 99754.094
0.56602716 -0.05 -0.050943264 99748.193
0.55976414 -0.05 -0.051368025 99742.299
0.55350061 -0.05 -0.051785396 99736.404
0.5472366 -0.05 -0.052195305 99730.41
0.54097209 -0.05 -0.052597591 99724.498
0.5347071 -0.05 -0.052992114 99718.502
0.5284416 -0.05 -0.053378802 99712.421
0.52217563 -0.05 -0.053757486 99706.292
0.51590916 -0.05 -0.05412802 99700.106
0.50964221 -0.05 -0.054490239 99693.922
0.50337478 -0.05 -0.054844006 99687.628
0.49710686 -0.05 -0.055189194 99681.273
0.49083848 -0.05 -0.055525608 99674.884
0.48456961 -0.05 -0.055853043 99668.481
0.47830027 -0.05 -0.056171377 99661.983
0.47203048 -0.05 -0.05648047 99655.438
0.46576022 -0.05 -0.056780071 99648.822
0.45948951 -0.05 -0.057069967 99642.056
0.45321835 -0.05 -0.057349996 99635.262
0.44694675 -0.05 -0.057619973 99628.508
0.44067471 -0.05 -0.057879673 99621.702
0.43440225 -0.05 -0.058128855 99614.837
0.42812937 -0.05 -0.05836731 99607.884
0.42185608 -0.05 -0.058594838 99600.843
0.4155824 -0.05 -0.058811191 99593.818
0.40930833 -0.05 -0.05901609 99586.81
0.4030339 -0.05 -0.059209311 99579.726
0.39675911 -0.05 -0.059390569 99572.669
0.39048398 -0.05 -0.059559554 99565.6
0.38420853 -0.05 -0.059716051 99558.447
0.37793276 -0.05 -0.059859821 99551.252
0.37165671 -0.05 -0.059990464 99544.186
0.3653804 -0.05 -0.060107662 99537.093
0.35910385 -0.05 -0.060211172 99529.983
0.35282707 -0.05 -0.060300656 99522.844
0.34655012 -0.05 -0.060375761 99515.706
0.340273 -0.05 -0.060436097 99508.59
0.33399575 -0.05 -0.060481337 99501.414
0.32771842 -0.05 -0.060511088 99494.316
0.32144103 -0.05 -0.060524928 99487.346
0.31516362 -0.05 -0.060522466 99480.449
0.30888624 -0.05 -0.06050329 99473.089
0.30260894 -0.05 -0.060466964 99465.236
0.29768685 -0.05 0.059586861 99377.3
0.29204973 -0.05 0.059623009 99370.682
0.28649368 -0.05 0.059644067 99364.041
0.28101756 -0.05 0.059650257 99357.52
0.2756203 -0.05 0.059641857 99351.07
0.27030076 -0.05 0.059619171 99344.881
0.26505786 -0.05 0.059582486 99338.775
0.25989056 -0.05 0.059532055 99332.852
0.25479781 -0.05 0.059468177 99326.834
0.24977856 -0.05 0.059391108 99320.973
0.2448318 -0.05 0.05930104 99315.275
0.23995652 -0.05 0.059198263 99309.802
0.23515173 -0.05 0.059083027 99304.489
0.23041646 -0.05 0.058955606 99299.199
0.22574975 -0.05 0.05881625 99293.896
0.22115064 -0.05 0.05866514 99288.79
0.2166182 -0.05 0.058502551 99283.712
0.21215153 -0.05 0.058328714 99278.862
0.20774969 -0.05 0.058143769 99274.217
0.2034118 -0.05 0.057947991 99269.666
0.199137 -0.05 0.057741601 99265.224
0.19492439 -0.05 0.057524838 99260.777
0.19077311 -0.05 0.057297916 99256.589
0.18668236 -0.05 0.057060926 99252.678
0.18265127 -0.05 0.056814128 99248.687
0.17867904 -0.05 0.056557722 99244.837
0.17476486 -0.05 0.056291875 99240.873
0.17090793 -0.05 0.056016804 99237.087
0.16710747 -0.05 0.055732678 99233.454
0.16336272 -0.05 0.055439641 99230.06
0.15967291 -0.05 0.055137831 99226.753
0.15603728 -0.05 0.05482748 99223.486
0.15245512 -0.05 0.05450871 99220.508
0.14892569 -0.05 0.054181667 99217.668
0.14544828 -0.05 0.053846509 99215.126
0.14202218 -0.05 0.053503337 99212.792
0.1386467 -0.05 0.053152315 99210.604
0.13532118 -0.05 0.052793564 99208.61
0.13204492 -0.05 0.052427261 99206.55
0.12881727 -0.05 0.052053521 99204.732
0.12563759 -0.05 0.051672376 99203.151
0.12250523 -0.05 0.051284015 99201.547
0.11941955 -0.05 0.050888566 99200.139
0.11637995 -0.05 0.050486047 99198.973
0.11338584 -0.05 0.05007654 99198
0.11043659 -0.05 0.049660179 99197.116
0.10753164 -0.05 0.049237003 99196.629
0.1046704 -0.05 0.048807108 99196.1
0.10185229 -0.05 0.048370656 99195.676
0.099076765 -0.05 0.047927593 99195.708
0.096343296 -0.05 0.047477974 99195.747
0.093651325 -0.05 0.047021949 99195.89
0.09100035 -0.05 0.046559435 99196.578
0.08838985 -0.05 0.046090502 99197.252
0.085819317 -0.05 0.045615218 99198.338
0.083288254 -0.05 0.045133613 99199.346
0.080796177 -0.05 0.044645731 99200.683
0.078342635 -0.05 0.04415147 99202.465
0.075927171 -0.05 0.043650824 99204.588
0.073549319 -0.05 0.043143866 99206.723
0.071208634 -0.05 0.04263062 99209.052
0.068904711 -0.05 0.042110972 99211.905
0.066637136 -0.05 0.041584885 99215.052
0.064405502 -0.05 0.041052356 99218.469
0.062209429 -0.05 0.040513294 99222.32
0.060048548 -0.05 0.039967616 99226.605
0.057922497 -0.05 0.03941526 99231.349
0.055830931 -0.05 0.038856126 99236.561
0.053773504 -0.05 0.038290181 99241.927
0.051749923 -0.05 0.037717236 99248.232
0.049759895 -0.05 0.03713714 99254.869
0.047803119 -0.05 0.036549829 99262.089
0.04587934 -0.05 0.035955121 99269.754
0.043988322 -0.05 0.035352828 99278.149
0.04212987 -0.05 0.034742676 99287.515
0.040303785 -0.05 0.034124471 99297.627
0.038509869 -0.05 0.033498064 99308.451
0.036747988 -0.05 0.032863169 99320.312
0.035018039 -0.05 0.032219478 99333.156
0.033319948 -0.05 0.031566679 99347.248
0.031653659 -0.05 0.030904454 99362.406
0.030019167 -0.05 0.030232452 99379.039
0.028416525 -0.05 0.029550239 99397.178
0.026845803 -0.05 0.028857435 99416.834
0.025307147 -0.05 0.028153554 99438.464
0.023800768 -0.05 0.027438077 99462.04
0.022326924 -0.05 0.026710496 99487.879
0.020885996 -0.05 0.025970179 99516.318
0.019478389 -0.05 0.025216557 99547.206
0.018104676 -0.05 0.024448899 99581.603
0.016765514 -0.05 0.023666448 99619.242
0.015461654 -0.05 0.022868455 99660.939
0.014194036 -0.05 0.022054071 99706.8
0.012963783 -0.05 0.02122243 99757.533
0.011772211 -0.05 0.020372632 99813.281
0.010620865 -0.05 0.019503674 99875.217
0.0095114867 -0.05 0.018614492 99944.181
0.0084461358 -0.05 0.017704219 100020.76
0.0074272957 -0.05 0.016771997 100104.95
0.0064576906 -0.05 0.01581672 100197.99
0.0055403732 -0.05 0.014837638 100299.04
0.0046790746 -0.05 0.013834559 100408.94
0.003877662 -0.05 0.012807075 100527.38
0.0031402243 -0.05 0.011755331 100652.8
0.0024715107 -0.05 0.010680607 100783.21
0.0018761074 -0.05 0.0095843406 100915.86
0.0013583756 -0.05 0.0084689926 101046.36
0.00092227489 -0.05 0.0073385674 101169.41
0.00057092204 -0.05 0.0061974397 101277.94
0.00030611391 -0.05 0.0050508997 101367.79
0.0001279846 -0.05 0.0039050043 101436.94
3.5088292e-05 -0.05 0.0027658313 101479.21
0.99686874 -0.05 -0.0061191119 100154.12
0.9906637 -0.05 -0.005168644 100169.21
0.9844576 -0.05 -0.0042251544 100153.9
0.97825045 -0.05 -0.0032886164 100146.49
0.97204226 -0.05 -0.0023589239 100137.29
0.96583307 -0.05 -0.0014359188 100128.07
0.9596229 -0.05 -0.00051961823 100118.96
0.95341175 -0.05 0.00039004119 100109.77
0.94719965 -0.05 0.001293214 100100.59
0.94098662 -0.05 0.0021899845 100091.45
0.93477268 -0.05 0.0030803576 100082.28
0.92855783 -0.05 0.0039643932 100073.27
0.92234208 -0.05 0.0048421678 100064.33
0.91612547 -0.05 0.0057137164 100055.56
0.90990801 -0.05 0.0065791897 100046.84
0.90368971 -0.05 0.007438585 100038.3
0.89747057 -0.05 0.008291934 100029.84
0.89125062 -0.05 0.0091393724 100021.5
0.88502987 -0.05 0.0099809138 100013.22
0.87880832 -0.05 0.010816501 100005.09
0.872586 -0.05 0.011646273 99997.046
0.8663629 -0.05 0.012470295 99989.154
0.86013904 -0.05 0.01328854 99981.367
0.85391445 -0.05 0.014101096 99973.713
0.84768911 -0.05 0.014908022 99966.171
0.84146305 -0.05 0.015709307 99958.748
0.83523627 -0.05 0.016504913 99951.427
0.82900878 -0.05 0.017295018 99944.178
0.82278059 -0.05 0.018079578 99937.068
0.81655169 -0.05 0.018858549 99930.005
0.81032211 -0.05 0.019632009 99923.054
0.80409186 -0.05 0.020399969 99916.148
0.79786092 -0.05 0.02116246 99909.325
0.79162932 -0.05 0.021919437 99902.561
0.78539707 -0.05 0.022670986 99895.839
0.77916415 -0.05 0.023417073 99889.198
0.77293057 -0.05 0.024157665 99882.589
0.76669636 -0.05 0.024892823 99876.03
0.7604615 -0.05 0.025622535 99869.508
0.75422601 -0.05 0.026346787 99863.027
0.74798988 -0.05 0.027065555 99856.585
0.74175313 -0.05 0.02777882 99850.177
0.73551574 -0.05 0.02848657 99843.815
0.72927773 -0.05 0.029188768 99837.502
0.7230391 -0.05 0.029885448 99831.2
0.71679986 -0.05 0.03057664 99824.916
0.71055999 -0.05 0.031262168 99818.701
0.70431951 -0.05 0.031942084 99812.437
0.69807841 -0.05 0.032616354 99806.268
0.6918367 -0.05 0.033284883 99800.06
0.68559439 -0.05 0.033947729 99793.894
0.67935146 -0.05 0.034604794 99787.736
0.67310792 -0.05 0.035256087 99781.565
0.66686378 -0.05 0.035901494 99775.453
0.66061902 -0.05 0.036540911 99769.331
0.65437365 -0.05 0.037174425 99763.177
0.64812768 -0.05 0.03780195 99757.035
0.64188111 -0.05 0.038423319 99750.891
0.63563391 -0.05 0.0390385 99744.747
0.62938611 -0.05 0.039647494 99738.584
0.6231377 -0.05 0.040250165 99732.459
0.61688867 -0.05 0.040846427 99726.288
0.61063903 -0.05 0.041436277 99720.099
0.60438878 -0.05 0.042019571 99713.9
0.59813791 -0.05 0.042596237 99707.652
0.59188643 -0.05 0.043166191 99701.401
0.58563433 -0.05 0.043729342 99695.096
0.5793816 -0.05 0.044285574 99688.799
0.57312827 -0.05 0.044834743 99682.464
0.56687431 -0.05 0.045376816 99676.079
0.56061972 -0.05 0.04591167 99669.682
0.55436451 -0.05 0.046439145 99663.263
0.54810868 -0.05 0.046959168 99656.792
0.54185221 -0.05 0.047471577 99650.352
0.53559512 -0.05 0.047976233 99643.891
0.5293374 -0.05 0.048473065 99637.423
0.52307905 -0.05 0.048961901 99630.938
0.51682008 -0.05 0.049442599 99624.404
0.51056046 -0.05 0.04991499 99617.865
0.50430023 -0.05 0.050378939 99611.242
0.49803935 -0.05 0.050834319 99604.578
0.49177785 -0.05 0.051280935 99597.894
0.48551572 -0.05 0.051718583 99591.229
0.47925295 -0.05 0.052147138 99584.491
0.47298956 -0.05 0.052566461 99577.718
0.46672555 -0.05 0.052976304 99570.925
0.4604609 -0.05 0.05337645 99564.103
0.45419564 -0.05 0.053766738 99557.233
0.44792975 -0.05 0.054146984 99550.299
0.44166325 -0.05 0.054516962 99543.336
0.43539615 -0.05 0.054876432 99536.377
0.42912843 -0.05 0.055225182 99529.373
0.42286012 -0.05 0.055563016 99522.325
0.41659121 -0.05 0.055889682 99515.269
0.41032172 -0.05 0.056204904 99508.176
0.40405166 -0.05 0.056508454 99500.996
0.39778102 -0.05 0.05680005 99493.847
0.39150983 -0.05 0.057079382 99486.705
0.3852381 -0.05 0.057346234 99479.523
0.37896584 -0.05 0.057600365 99472.295
0.37269306 -0.05 0.057841377 99465.098
0.36641978 -0.05 0.05806895 99457.83
0.36014602 -0.05 0.058282841 99450.561
0.35387179 -0.05 0.058482714 99443.284
0.34759713 -0.05 0.058668211 99436.003
0.34132203 -0.05 0.058838946 99428.678
0.33504656 -0.05 0.058994588 99421.245
0.32877071 -0.05 0.059134746 99413.904
0.32249454 -0.05 0.059258997 99406.583
0.31621807 -0.05 0.059366949 99399.211
0.30994132 -0.05 0.059458187 99391.54
0.30366435 -0.05 0.059532277 99384.151
