# wallShearStress  FACE_DATA 448
# x y z  wallShearStress_x wallShearStress_y wallShearStress_z
0.2966314 -0.05 -0.060416402 -8.4208477 -4.2060656e-17 0.082126999
0.29099452 -0.05 -0.060353393 -8.1916885 4.5030744e-17 0.1006299
0.28543895 -0.05 -0.060276724 -7.9926815 -1.0729607e-16 0.11861247
0.27996358 -0.05 -0.060186594 -7.8003583 -2.1443076e-16 0.13610026
0.2745673 -0.05 -0.060083263 -7.6165638 7.9202226e-17 0.15325773
0.26924898 -0.05 -0.059967016 -7.4403236 5.4524357e-17 0.16984572
0.26400754 -0.05 -0.059838119 -7.271344 6.37392e-17 0.18582158
0.25884193 -0.05 -0.05969681 -7.1093201 9.9105595e-17 0.20132639
0.25375109 -0.05 -0.059543366 -6.9541006 -7.072821e-18 0.21625521
0.24873397 -0.05 -0.059378026 -6.8056233 2.3587049e-16 0.23087781
0.24378956 -0.05 -0.059200964 -6.6630273 4.2812936e-17 0.24499561
0.23891684 -0.05 -0.059012452 -6.52643 3.5021319e-17 0.25870037
0.23411482 -0.05 -0.058812723 -6.3951997 2.0360319e-16 0.27195124
0.22938253 -0.05 -0.058602032 -6.2684803 -5.0447116e-16 0.28482571
0.22471899 -0.05 -0.058380615 -6.1463301 -4.3443719e-17 0.29748645
0.22012324 -0.05 -0.058148636 -6.0294309 3.5447764e-16 0.30995182
0.21559438 -0.05 -0.057906352 -5.9179207 -3.1465592e-16 0.32213934
0.21113145 -0.05 -0.057653978 -5.8120016 -2.1899511e-16 0.33430752
0.20673354 -0.05 -0.057391639 -5.7108462 -4.7385819e-16 0.34626028
0.20239977 -0.05 -0.057119592 -5.6147986 -1.2782079e-16 0.35807356
0.19812925 -0.05 -0.056838044 -5.5238847 -2.1638828e-16 0.36984173
0.1939211 -0.05 -0.05654722 -5.438128 -1.4379484e-16 0.3815681
0.18977448 -0.05 -0.056247318 -5.3577967 2.9723588e-16 0.39348458
0.18568851 -0.05 -0.055938412 -5.2818931 -3.9603719e-16 0.40540318
0.18166239 -0.05 -0.055620749 -5.2106159 4.427097e-16 0.41733001
0.17769529 -0.05 -0.055294516 -5.1441612 -4.1655216e-16 0.42948455
0.17378639 -0.05 -0.054959865 -5.0817035 2.6764377e-18 0.44165915
0.1699349 -0.05 -0.054616997 -5.0237727 -2.9659447e-16 0.4541002
0.16614002 -0.05 -0.054266069 -4.969773 -2.623016e-16 0.46674125
0.162401 -0.05 -0.053907211 -4.9195729 -2.1916092e-16 0.47968163
0.15871706 -0.05 -0.053540548 -4.8724887 -1.5162515e-16 0.49273657
0.15508746 -0.05 -0.053166299 -4.8288954 4.80409e-16 0.50610572
0.15151146 -0.05 -0.052784571 -4.7883054 -5.9568211e-16 0.51979634
0.14798833 -0.05 -0.0523955 -4.7502014 -3.9532333e-17 0.53366601
0.14451735 -0.05 -0.051999231 -4.7148074 1.4502879e-16 0.5478601
0.14109782 -0.05 -0.05159585 -4.6819916 4.382557e-17 0.56221446
0.13772905 -0.05 -0.051185511 -4.6530908 1.0213752e-16 0.57688516
0.13441035 -0.05 -0.050768324 -4.629963 -2.0192863e-16 0.59201458
0.13114103 -0.05 -0.050344451 -4.615083 6.8999018e-16 0.60782491
0.12792045 -0.05 -0.049913999 -4.6099691 -6.0634746e-16 0.62486785
0.12474797 -0.05 -0.049476986 -4.6104337 -4.8063692e-16 0.64334846
0.12162292 -0.05 -0.04903359 -4.6075457 1.7930643e-16 0.66307391
0.11854468 -0.05 -0.048583928 -4.5985252 -1.5074974e-16 0.6829194
0.11551263 -0.05 -0.048128009 -4.5903789 7.6038203e-18 0.7025897
0.11252618 -0.05 -0.047665901 -4.584868 -3.7845514e-16 0.72250595
0.10958471 -0.05 -0.047197731 -4.5817394 -6.5493828e-16 0.74304049
0.10668766 -0.05 -0.046723526 -4.5803207 -6.0195923e-16 0.76419439
0.10383442 -0.05 -0.046243371 -4.5800173 3.8289626e-16 0.78573663
0.10102442 -0.05 -0.045757419 -4.5819558 -2.2298666e-16 0.80834889
0.09825712 -0.05 -0.045265605 -4.5853324 7.2639629e-17 0.83184174
0.095531982 -0.05 -0.044767978 -4.5903394 -2.3586061e-16 0.85625274
0.092848448 -0.05 -0.044264674 -4.5982415 2.4964192e-16 0.88235535
0.090206018 -0.05 -0.043755605 -4.6069492 2.8784763e-16 0.90963191
0.08760417 -0.05 -0.043240828 -4.613817 -4.0358719e-16 0.93740312
0.085042393 -0.05 -0.042720406 -4.6140155 -8.0843981e-16 0.9647978
0.082520193 -0.05 -0.042194356 -4.5914506 5.7102433e-16 0.98767202
0.080037083 -0.05 -0.041662717 -4.5462442 -1.5728882e-16 1.0025139
0.077592614 -0.05 -0.041125377 -4.5454945 -2.2795102e-16 1.0261577
0.07518633 -0.05 -0.040582323 -4.5607074 -3.3018878e-16 1.0574127
0.072817762 -0.05 -0.04003362 -4.5805015 9.1476359e-17 1.0907788
0.070486466 -0.05 -0.039479283 -4.6042996 4.3860517e-17 1.1262182
0.068192039 -0.05 -0.038919193 -4.6327366 1.5998661e-16 1.1635222
0.06593407 -0.05 -0.038353303 -4.6678658 5.1883544e-16 1.2032504
0.063712147 -0.05 -0.037781603 -4.7112191 -1.8554479e-16 1.2467628
0.061525896 -0.05 -0.037203998 -4.7581593 1.8121455e-16 1.2939855
0.059374947 -0.05 -0.036620397 -4.7989372 -8.0560691e-17 1.3425228
0.057258939 -0.05 -0.036030732 -4.8306411 -7.2981009e-18 1.3904982
0.055177532 -0.05 -0.035434897 -4.8569452 -3.1815475e-16 1.4378583
0.053130378 -0.05 -0.034832851 -4.881077 -3.2745697e-16 1.4862078
0.051117187 -0.05 -0.034224402 -4.9056018 -4.520838e-16 1.5368405
0.04913767 -0.05 -0.033609393 -4.9291482 9.7024337e-16 1.5892875
0.047191527 -0.05 -0.032987756 -4.952747 -3.2555261e-16 1.6441841
0.045278506 -0.05 -0.032359302 -4.9737412 -4.128134e-16 1.7006511
0.043398374 -0.05 -0.031723842 -4.9935151 7.493963e-16 1.7592963
0.041550942 -0.05 -0.031081096 -5.0123706 1.1870499e-16 1.8206376
0.039736012 -0.05 -0.030430868 -5.0327175 2.5280754e-16 1.8864993
0.037953392 -0.05 -0.029773005 -5.0561614 -9.1520878e-16 1.9569092
0.036202951 -0.05 -0.029107219 -5.0779713 -9.1175901e-16 2.0302789
0.034484591 -0.05 -0.0284332 -5.0963894 8.9821902e-16 2.1056436
0.032798243 -0.05 -0.027750633 -5.1100239 -1.2518474e-16 2.1822951
0.031143861 -0.05 -0.027059203 -5.1169085 2.1981753e-16 2.2620119
0.029521441 -0.05 -0.026358555 -5.1204602 6.5681121e-16 2.348241
0.027931047 -0.05 -0.02564826 -5.1181767 -1.6317175e-16 2.4361929
0.026372753 -0.05 -0.024927935 -5.0986799 -6.4735312e-16 2.5205986
0.024846717 -0.05 -0.024197099 -5.0662463 3.7125009e-16 2.6031172
0.023353155 -0.05 -0.023455238 -5.0300703 1.9814703e-16 2.6885117
0.021892336 -0.05 -0.022701847 -4.996688 9.9607656e-16 2.7822867
0.020464652 -0.05 -0.0219363 -4.9513906 2.8883611e-16 2.8724425
0.019070519 -0.05 -0.021158035 -4.8586471 -4.7749241e-16 2.9393709
0.017710521 -0.05 -0.020366335 -4.7015555 -1.3605e-15 2.980797
0.016385328 -0.05 -0.01956045 -4.4912222 1.5898802e-16 3.0065326
0.015095706 -0.05 -0.018739647 -4.256353 4.1749671e-16 3.0447547
0.013842609 -0.05 -0.017903092 -4.0407544 -6.0822463e-16 3.1353135
0.012627173 -0.05 -0.017049941 -3.8886235 -4.2958567e-16 3.3088615
0.011450732 -0.05 -0.016179317 -3.7565571 -9.8673645e-16 3.559764
0.010314848 -0.05 -0.015290243 -3.6596427 -4.7103703e-16 3.8998033
0.0092212812 -0.05 -0.014381686 -3.6118502 -6.5803504e-17 4.3034846
0.0081721058 -0.05 -0.013452815 -3.6817439 2.0277045e-16 4.7872421
0.00716982 -0.05 -0.012502817 -3.7696422 -1.3623553e-16 5.2596614
0.0062171672 -0.05 -0.011530633 -3.7713543 1.6724318e-16 5.6249928
0.0053172126 -0.05 -0.010535569 -3.6525711 4.6626379e-16 5.8644223
0.0044736903 -0.05 -0.0095174955 -3.4096187 4.9492753e-16 5.9706843
0.003690474 -0.05 -0.0084760745 -3.0588723 1.3639997e-16 5.8943454
0.0029716494 -0.05 -0.0074115224 -2.6203379 -5.8101173e-16 5.6297003
0.0023219424 -0.05 -0.0063252033 -2.1345041 -5.7464511e-17 5.2042712
0.0017459134 -0.05 -0.0052186334 -1.6424996 -1.8416712e-17 4.6095502
0.0012478794 -0.05 -0.0040943514 -1.173568 5.1546009e-16 3.863368
0.00083172905 -0.05 -0.0029564306 -0.76653433 -3.7927893e-17 3.0120561
0.00050050175 -0.05 -0.0018092995 -0.47252768 2.1995404e-17 2.0836226
0.00025590096 -0.05 -0.00065827911 -0.28316508 -7.6957645e-17 1.1747792
9.7954239e-05 -0.05 0.00049057204 -0.17666873 2.5591917e-17 0.52726487
2.510909e-05 -0.05 0.0016312028 -0.15571441 -4.0819785e-17 -0.056674325
0.99686083 -0.05 -0.0070184295 -82.040962 -1.566676e-15 -10.926877
0.99064004 -0.05 -0.0078596106 -66.457734 -7.0487556e-16 -9.0761222
0.9844183 -0.05 -0.0086937957 -71.56067 -1.0714521e-15 -9.4256232
0.97819563 -0.05 -0.0095210118 -70.273357 1.1891635e-15 -9.2319238
0.97197205 -0.05 -0.010341365 -70.238404 -1.264514e-15 -9.1410999
0.9657476 -0.05 -0.011155015 -69.883175 -6.2157916e-16 -9.0208904
0.95952226 -0.05 -0.011961944 -69.544414 4.9073818e-17 -8.9020245
0.95329607 -0.05 -0.012762215 -69.164394 -3.7164534e-16 -8.7807908
0.94706905 -0.05 -0.013555984 -68.761798 -1.379644e-15 -8.6579955
0.94084121 -0.05 -0.014343336 -68.340638 -1.609614e-15 -8.534437
0.93461256 -0.05 -0.015124275 -67.901993 -1.7793359e-15 -8.4100908
0.92838313 -0.05 -0.015898862 -67.44961 -1.5041635e-15 -8.2859624
0.92215291 -0.05 -0.016667173 -66.982761 8.1704072e-16 -8.1612686
0.91592193 -0.05 -0.017429243 -66.504015 -7.376622e-16 -8.0372891
0.90969021 -0.05 -0.018185224 -66.015115 2.165571e-15 -7.9134726
0.90345774 -0.05 -0.018935113 -65.515583 -2.1280478e-15 -7.7897016
0.89722456 -0.05 -0.019678942 -65.007084 -2.2743698e-16 -7.6668375
0.89099067 -0.05 -0.020416848 -64.490933 -1.1563428e-15 -7.5443919
0.88475608 -0.05 -0.021148843 -63.966438 8.972541e-16 -7.4220052
0.8785208 -0.05 -0.021874871 -63.434069 1.1462296e-17 -7.3004684
0.87228483 -0.05 -0.02259507 -62.895711 -1.8641841e-15 -7.1801885
0.86604821 -0.05 -0.023309507 -62.351038 1.0463935e-15 -7.0600629
0.85981093 -0.05 -0.024018156 -61.800321 1.2066333e-15 -6.9410019
0.85357301 -0.05 -0.024721101 -61.244048 -6.573857e-16 -6.8227364
0.84733444 -0.05 -0.025418407 -60.682687 -1.4026895e-15 -6.7050967
0.84109525 -0.05 -0.026110057 -60.116568 1.0484312e-15 -6.588004
0.83485543 -0.05 -0.026796018 -59.544979 -9.2478402e-16 -6.472017
0.82861501 -0.05 -0.027476466 -58.970512 -2.0004953e-15 -6.3571601
0.82237398 -0.05 -0.028151358 -58.390495 2.0728334e-15 -6.2420915
0.81613235 -0.05 -0.028820649 -57.807397 -1.2705558e-16 -6.1286385
0.80989013 -0.05 -0.029484418 -57.22003 -1.580341e-15 -6.0156071
0.80364732 -0.05 -0.030142676 -56.629549 9.3064284e-16 -5.9037191
0.79740395 -0.05 -0.030795454 -56.03525 3.8727505e-16 -5.7922639
0.79115999 -0.05 -0.031442707 -55.437602 9.2163301e-16 -5.6818287
0.78491548 -0.05 -0.032084521 -54.837557 4.5616317e-16 -5.5723138
0.77867041 -0.05 -0.032720862 -54.233942 -1.8061554e-15 -5.463138
0.77242477 -0.05 -0.033351698 -53.627549 1.1597132e-16 -5.3551852
0.76617859 -0.05 -0.033977091 -53.018717 8.1358681e-16 -5.2479021
0.75993186 -0.05 -0.034597025 -52.406869 1.0190984e-15 -5.1413167
0.75368459 -0.05 -0.035211489 -51.793024 1.3839333e-15 -5.035449
0.74743679 -0.05 -0.035820459 -51.176287 -9.6949634e-16 -4.930266
0.74118845 -0.05 -0.036423917 -50.557385 8.8976177e-16 -4.8258869
0.73493959 -0.05 -0.037021848 -49.936257 -8.5175172e-16 -4.722274
0.72869019 -0.05 -0.037614218 -49.312713 4.9281341e-16 -4.6194943
0.72244027 -0.05 -0.03820106 -48.687418 -9.9180549e-16 -4.5176813
0.71618983 -0.05 -0.038782403 -48.060518 -6.5712453e-16 -4.4162607
0.70993888 -0.05 -0.039358073 -47.430355 6.1830497e-16 -4.3152748
0.7036874 -0.05 -0.039928121 -46.799372 1.1195257e-17 -4.2157009
0.69743541 -0.05 -0.040492512 -46.165541 -4.4644588e-16 -4.1160939
0.69118291 -0.05 -0.041051153 -45.530136 -6.5450792e-16 -4.0178728
0.6849299 -0.05 -0.041604101 -44.892984 -4.9673839e-16 -3.9200786
0.67867638 -0.05 -0.042151258 -44.253688 -3.1979095e-16 -3.8230397
0.67242236 -0.05 -0.042692634 -43.613264 1.2965272e-15 -3.7267409
0.66616783 -0.05 -0.043228112 -42.970193 -5.9534775e-16 -3.6307781
0.65991278 -0.05 -0.043757592 -42.32519 2.1509905e-16 -3.535982
0.65365724 -0.05 -0.04428116 -41.678718 8.3636842e-16 -3.4419348
0.6474012 -0.05 -0.044798728 -41.029956 1.4211572e-16 -3.348119
0.64114466 -0.05 -0.04531013 -40.378732 -3.8229725e-16 -3.255094
0.63488761 -0.05 -0.045815334 -39.724821 8.9670794e-16 -3.1629451
0.62863007 -0.05 -0.046314343 -39.06887 3.2905572e-16 -3.0714607
0.62237202 -0.05 -0.046807017 -38.40933 -6.2373611e-16 -2.9803818
0.61611347 -0.05 -0.047293273 -37.746612 -2.3923126e-16 -2.8903065
0.60985442 -0.05 -0.047773108 -37.08 -7.2959213e-16 -2.800706
0.60359488 -0.05 -0.048246377 -36.408825 9.6639979e-16 -2.7116038
0.59733484 -0.05 -0.048713008 -35.732547 3.7588226e-16 -2.6232645
0.5910743 -0.05 -0.049172917 -35.050213 7.7329128e-16 -2.5352925
0.58481326 -0.05 -0.049626013 -34.3611 -4.5495314e-16 -2.4479556
0.57855171 -0.05 -0.050072181 -33.664053 -6.9967553e-16 -2.360854
0.57228968 -0.05 -0.050511275 -32.957773 -4.074653e-16 -2.2743936
0.56602716 -0.05 -0.050943264 -32.242028 2.2798653e-17 -2.1884111
0.55976414 -0.05 -0.051368025 -31.515558 5.518535e-16 -2.1026569
0.55350061 -0.05 -0.051785396 -30.77797 -3.8127469e-16 -2.0174294
0.5472366 -0.05 -0.052195305 -30.029893 -8.6672985e-16 -1.9329123
0.54097209 -0.05 -0.052597591 -29.272506 -7.1615268e-16 -1.8492907
0.5347071 -0.05 -0.052992114 -28.508814 -1.3882016e-16 -1.7673408
0.5284416 -0.05 -0.053378802 -27.74473 3.2960507e-16 -1.6860121
0.52217563 -0.05 -0.053757486 -26.983703 9.0981405e-16 -1.6055454
0.51590916 -0.05 -0.05412802 -26.217785 7.7866389e-17 -1.526233
0.50964221 -0.05 -0.054490239 -25.450273 9.3246724e-16 -1.4479589
0.50337478 -0.05 -0.054844006 -24.684905 -3.4269488e-17 -1.3712284
0.49710686 -0.05 -0.055189194 -23.924889 2.0716118e-16 -1.2955729
0.49083848 -0.05 -0.055525608 -23.173404 -1.3598342e-16 -1.2207321
0.48456961 -0.05 -0.055853043 -22.432669 -3.8729203e-16 -1.1479865
0.47830027 -0.05 -0.056171377 -21.703749 3.5331581e-16 -1.0779601
0.47203048 -0.05 -0.05648047 -20.986109 2.7161405e-16 -1.0102362
0.46576022 -0.05 -0.056780071 -20.279657 1.2401054e-16 -0.94479228
0.45948951 -0.05 -0.057069967 -19.584873 -3.2187923e-16 -0.88174778
0.45321835 -0.05 -0.057349996 -18.902647 -2.0635254e-16 -0.82110877
0.44694675 -0.05 -0.057619973 -18.235205 2.8188668e-17 -0.76289236
0.44067471 -0.05 -0.057879673 -17.59059 -9.9474364e-17 -0.7070706
0.43440225 -0.05 -0.058128855 -16.972506 5.4357577e-17 -0.6537871
0.42812937 -0.05 -0.05836731 -16.382633 3.3176673e-16 -0.60314929
0.42185608 -0.05 -0.058594838 -15.82216 -3.4311604e-16 -0.55515352
0.4155824 -0.05 -0.058811191 -15.288443 -1.3446485e-16 -0.50942465
0.40930833 -0.05 -0.05901609 -14.781453 1.6499367e-17 -0.46593508
0.4030339 -0.05 -0.059209311 -14.298163 2.9714298e-16 -0.42443826
0.39675911 -0.05 -0.059390569 -13.833969 8.1218897e-17 -0.38449523
0.39048398 -0.05 -0.059559554 -13.387427 2.3206765e-16 -0.34616985
0.38420853 -0.05 -0.059716051 -12.958216 -1.1842729e-16 -0.30943074
0.37793276 -0.05 -0.059859821 -12.54604 -5.9184414e-17 -0.27408206
0.37165671 -0.05 -0.059990464 -12.14935 1.8030431e-16 -0.23996991
0.3653804 -0.05 -0.060107662 -11.767203 6.5687624e-17 -0.20735409
0.35910385 -0.05 -0.060211172 -11.399431 -1.0299262e-17 -0.17601472
0.35282707 -0.05 -0.060300656 -11.045313 7.8496046e-18 -0.1460006
0.34655012 -0.05 -0.060375761 -10.704092 -1.5236013e-18 -0.11746459
0.340273 -0.05 -0.060436097 -10.375044 8.3176216e-17 -0.090117093
0.33399575 -0.05 -0.060481337 -10.057949 3.1215103e-17 -0.062556642
0.32771842 -0.05 -0.060511088 -9.7526161 -3.0553722e-17 -0.034292049
0.32144103 -0.05 -0.060524928 -9.4578335 -3.0380122e-19 -0.008880393
0.31516362 -0.05 -0.060522466 -9.1735178 7.4304836e-19 0.016283895
0.30888624 -0.05 -0.06050329 -8.9019923 -3.0952216e-17 0.04088854
0.30260894 -0.05 -0.060466964 -8.6610854 6.9743262e-17 0.062164657
0.29768685 -0.05 0.059586861 -7.2021748 1.4485865e-17 0.039010284
0.29204973 -0.05 0.059623009 -7.4926699 2.0296969e-17 0.020221348
0.28649368 -0.05 0.059644067 -7.770783 -2.1323148e-17 0.00034903213
0.28101756 -0.05 0.059650257 -8.0516501 4.3634933e-19 -0.02203191
0.2756203 -0.05 0.059641857 -8.3353662 4.0896486e-18 -0.046510402
0.27030076 -0.05 0.059619171 -8.6216385 -6.9528162e-18 -0.070536222
0.26505786 -0.05 0.059582486 -8.908282 5.9671342e-18 -0.096630946
0.25989056 -0.05 0.059532055 -9.1955459 7.1523776e-17 -0.12469946
0.25479781 -0.05 0.059468177 -9.4839302 -5.574596e-17 -0.15518811
0.24977856 -0.05 0.059391108 -9.7735324 -8.9023841e-17 -0.18784418
0.2448318 -0.05 0.05930104 -10.06286 -1.0003821e-16 -0.2222709
0.23995652 -0.05 0.059198263 -10.351561 -1.6183003e-16 -0.25852169
0.23515173 -0.05 0.059083027 -10.637623 2.1159952e-16 -0.29643814
0.23041646 -0.05 0.058955606 -10.91708 7.5277194e-17 -0.33612327
0.22574975 -0.05 0.05881625 -11.190969 -3.0934079e-16 -0.3778579
0.22115064 -0.05 0.05866514 -11.458329 1.6305603e-18 -0.42148258
0.2166182 -0.05 0.058502551 -11.717407 -1.3654231e-16 -0.46671037
0.21215153 -0.05 0.058328714 -11.970867 -8.1239961e-18 -0.51413886
0.20774969 -0.05 0.058143769 -12.220585 -2.1493602e-16 -0.56335962
0.2034118 -0.05 0.057947991 -12.47192 -2.8417643e-16 -0.61431563
0.199137 -0.05 0.057741601 -12.726701 -3.1661117e-16 -0.66706814
0.19492439 -0.05 0.057524838 -12.981399 -2.7388707e-16 -0.72122827
0.19077311 -0.05 0.057297916 -13.228852 3.613419e-16 -0.77707981
0.18668236 -0.05 0.057060926 -13.458611 -1.902104e-16 -0.83438742
0.18265127 -0.05 0.056814128 -13.66589 -5.9634804e-17 -0.89351173
0.17867904 -0.05 0.056557722 -13.850013 -9.1262548e-17 -0.95601792
0.17476486 -0.05 0.056291875 -14.028203 1.0235431e-16 -1.022445
0.17090793 -0.05 0.056016804 -14.219656 -9.1535143e-17 -1.0937487
0.16710747 -0.05 0.055732678 -14.440438 7.5330562e-16 -1.1698328
0.16336272 -0.05 0.055439641 -14.676374 2.2659625e-16 -1.2497904
0.15967291 -0.05 0.055137831 -14.926167 -3.1647958e-16 -1.3334878
0.15603728 -0.05 0.05482748 -15.191029 -2.5550611e-16 -1.4211074
0.15245512 -0.05 0.05450871 -15.477432 4.6704438e-16 -1.5129958
0.14892569 -0.05 0.054181667 -15.793353 1.4962885e-16 -1.6094351
0.14544828 -0.05 0.053846509 -16.139172 -1.727729e-17 -1.7116466
0.14202218 -0.05 0.053503337 -16.503903 -1.0181221e-15 -1.8192327
0.1386467 -0.05 0.053152315 -16.877019 4.7378987e-16 -1.9316794
0.13532118 -0.05 0.052793564 -17.250955 -1.8480453e-16 -2.0483647
0.13204492 -0.05 0.052427261 -17.621525 -5.316175e-16 -2.1688396
0.12881727 -0.05 0.052053521 -17.986006 -4.9296284e-16 -2.2934562
0.12563759 -0.05 0.051672376 -18.341115 -1.4248811e-16 -2.4212225
0.12250523 -0.05 0.051284015 -18.6868 9.1649358e-16 -2.5520575
0.11941955 -0.05 0.050888566 -19.022547 -2.757631e-16 -2.6869676
0.11637995 -0.05 0.050486047 -19.346361 1.7946716e-16 -2.8259009
0.11338584 -0.05 0.05007654 -19.657837 -6.8639626e-16 -2.9678917
0.11043659 -0.05 0.049660179 -19.957172 -2.5984345e-16 -3.1130778
0.10753164 -0.05 0.049237003 -20.243251 -1.077563e-15 -3.2612711
0.1046704 -0.05 0.048807108 -20.516314 -3.7514194e-16 -3.412075
0.10185229 -0.05 0.048370656 -20.777534 1.8869366e-16 -3.566625
0.099076765 -0.05 0.047927593 -21.025434 -9.0882304e-17 -3.7242719
0.096343296 -0.05 0.047477974 -21.260639 6.8216591e-16 -3.8844857
0.093651325 -0.05 0.047021949 -21.484506 -1.1668159e-16 -4.0484682
0.09100035 -0.05 0.046559435 -21.694569 -4.2606719e-16 -4.2153635
0.08838985 -0.05 0.046090502 -21.891639 -4.0235705e-16 -4.3847968
0.085819317 -0.05 0.045615218 -22.075811 -2.6151844e-16 -4.5574041
0.083288254 -0.05 0.045133613 -22.247609 -8.9724052e-16 -4.7330582
0.080796177 -0.05 0.044645731 -22.40676 1.5579868e-16 -4.9125677
0.078342635 -0.05 0.04415147 -22.551264 -5.1698705e-16 -5.0947904
0.075927171 -0.05 0.043650824 -22.681331 1.3119797e-16 -5.2792025
0.073549319 -0.05 0.043143866 -22.798753 6.9857037e-16 -5.4665185
0.071208634 -0.05 0.04263062 -22.903752 -2.7324883e-16 -5.657425
0.068904711 -0.05 0.042110972 -22.994634 -1.5663827e-17 -5.8512386
0.066637136 -0.05 0.041584885 -23.070737 -2.4857861e-16 -6.0480073
0.064405502 -0.05 0.041052356 -23.130696 -1.5106842e-16 -6.2478105
0.062209429 -0.05 0.040513294 -23.173851 8.2557094e-16 -6.4505605
0.060048548 -0.05 0.039967616 -23.199531 2.5064301e-16 -6.6559427
0.057922497 -0.05 0.03941526 -23.207389 1.1151278e-15 -6.86408
0.055830931 -0.05 0.038856126 -23.196926 -3.3432623e-16 -7.0745744
0.053773504 -0.05 0.038290181 -23.169785 -2.0109067e-16 -7.2885724
0.051749923 -0.05 0.037717236 -23.122964 1.665477e-16 -7.5046012
0.049759895 -0.05 0.03713714 -23.056585 -3.7199749e-17 -7.7226574
0.047803119 -0.05 0.036549829 -22.970933 -2.0967982e-16 -7.9431337
0.04587934 -0.05 0.035955121 -22.865529 5.4954751e-16 -8.166373
0.043988322 -0.05 0.035352828 -22.739087 8.3906215e-16 -8.3919942
0.04212987 -0.05 0.034742676 -22.589268 7.4975962e-16 -8.6185852
0.040303785 -0.05 0.034124471 -22.416081 9.2398818e-16 -8.8462052
0.038509869 -0.05 0.033498064 -22.219788 -3.3710453e-16 -9.0759632
0.036747988 -0.05 0.032863169 -21.998816 -2.2714048e-16 -9.3067522
0.035018039 -0.05 0.032219478 -21.752508 5.0156426e-16 -9.5381276
0.033319948 -0.05 0.031566679 -21.479524 -4.5774328e-16 -9.7690509
0.031653659 -0.05 0.030904454 -21.179745 -3.0096141e-16 -9.999628
0.030019167 -0.05 0.030232452 -20.85141 3.1181025e-16 -10.228848
0.028416525 -0.05 0.029550239 -20.493334 -4.0621983e-17 -10.455354
0.026845803 -0.05 0.028857435 -20.105317 -9.9777878e-17 -10.679101
0.025307147 -0.05 0.028153554 -19.68512 2.4278317e-16 -10.897855
0.023800768 -0.05 0.027438077 -19.231743 1.0715842e-15 -11.110347
0.022326924 -0.05 0.026710496 -18.744151 -5.169e-16 -11.315208
0.020885996 -0.05 0.025970179 -18.220547 -2.4891883e-16 -11.509192
0.019478389 -0.05 0.025216557 -17.66086 -2.5911667e-16 -11.692088
0.018104676 -0.05 0.024448899 -17.06175 -9.8189912e-17 -11.858225
0.016765514 -0.05 0.023666448 -16.422739 4.0537205e-17 -12.005535
0.015461654 -0.05 0.022868455 -15.742616 -8.7073146e-17 -12.12931
0.014194036 -0.05 0.022054071 -15.020177 9.3048061e-16 -12.22538
0.012963783 -0.05 0.02122243 -14.254576 2.7867888e-16 -12.288076
0.011772211 -0.05 0.020372632 -13.445861 -5.9954178e-16 -12.313121
0.010620865 -0.05 0.019503674 -12.594073 1.5088039e-16 -12.290942
0.0095114867 -0.05 0.018614492 -11.698993 1.8574714e-16 -12.21121
0.0084461358 -0.05 0.017704219 -10.762617 2.4166041e-16 -12.063575
0.0074272957 -0.05 0.016771997 -9.7887397 -2.1874306e-16 -11.841306
0.0064576906 -0.05 0.01581672 -8.7851547 -1.8193421e-16 -11.529951
0.0055403732 -0.05 0.014837638 -7.7579883 -5.0976559e-16 -11.123679
0.0046790746 -0.05 0.013834559 -6.7175027 3.1015963e-16 -10.606828
0.003877662 -0.05 0.012807075 -5.6815292 -1.0327835e-17 -9.9575722
0.0031402243 -0.05 0.011755331 -4.670294 1.7675191e-16 -9.1744003
0.0024715107 -0.05 0.010680607 -3.7072618 -3.428053e-17 -8.2638361
0.0018761074 -0.05 0.0095843406 -2.8178015 -2.6219066e-16 -7.2329938
0.0013583756 -0.05 0.0084689926 -2.0239456 1.7714304e-16 -6.1021613
0.00092227489 -0.05 0.0073385674 -1.3482469 2.564311e-16 -4.9066395
0.00057092204 -0.05 0.0061974397 -0.82227788 -1.5657884e-16 -3.6908637
0.00030611391 -0.05 0.0050508997 -0.48041401 -9.6420917e-17 -2.4995931
0.0001279846 -0.05 0.0039050043 -0.28270777 1.7588955e-17 -1.4182295
3.5088292e-05 -0.05 0.0027658313 -0.17867009 -1.1108842e-17 -0.67450723
0.99686874 -0.05 -0.0061191119 0.5590476 6.319845e-16 0.089616473
0.9906637 -0.05 -0.005168644 0.023567183 2.476909e-16 -0.0016033839
0.9844576 -0.05 -0.0042251544 0.032018116 -3.6037834e-16 -0.0023805095
0.97825045 -0.05 -0.0032886164 0.027080267 -2.6953823e-16 -0.0017019798
0.97204226 -0.05 -0.0023589239 0.024887525 -5.7555227e-16 -0.0016021161
0.96583307 -0.05 -0.0014359188 0.031210015 3.2455125e-16 -0.0030063065
0.9596229 -0.05 -0.00051961823 0.025023704 1.9491716e-16 -0.0021787265
0.95341175 -0.05 0.00039004119 0.029041992 -1.4783819e-16 -0.0028636069
0.94719965 -0.05 0.001293214 0.023326109 -1.2526953e-15 -0.0021335393
0.94098662 -0.05 0.0021899845 0.025753387 -4.1541694e-16 -0.0023275719
0.93477268 -0.05 0.0030803576 0.022708844 -1.645076e-16 -0.0020835147
0.92855783 -0.05 0.0039643932 0.021767213 -1.1469515e-17 -0.0018675324
0.92234208 -0.05 0.0048421678 0.019270877 -8.251045e-16 -0.0014644086
0.91612547 -0.05 0.0057137164 0.015794689 -3.2798639e-17 -0.00096022009
0.90990801 -0.05 0.0065791897 0.01174661 -5.1644557e-16 -0.00042231227
0.90368971 -0.05 0.007438585 0.007204174 -1.240251e-16 0.00017628727
0.89747057 -0.05 0.008291934 0.002372034 4.6989515e-16 0.00077112791
0.89125062 -0.05 0.0091393724 -0.0025581784 -1.5571061e-16 0.0012200099
0.88502987 -0.05 0.0099809138 -0.0061867041 -3.6353593e-16 0.0016771748
0.87880832 -0.05 0.010816501 -0.0097517509 -1.5243353e-16 0.0021350373
0.872586 -0.05 0.011646273 -0.013557265 -5.21103e-16 0.0026024365
0.8663629 -0.05 0.012470295 -0.0176283 5.3007916e-16 0.0031066243
0.86013904 -0.05 0.01328854 -0.021932449 -8.927448e-16 0.0036257192
0.85391445 -0.05 0.014101096 -0.026535844 1.0035916e-16 0.0041756499
0.84768911 -0.05 0.014908022 -0.03144346 3.504795e-16 0.0047552936
0.84146305 -0.05 0.015709307 -0.036713164 -4.3044702e-16 0.0053820619
0.83523627 -0.05 0.016504913 -0.042319634 -6.0702548e-16 0.0060434695
0.82900878 -0.05 0.017295018 -0.048372838 -6.1046056e-16 0.006746407
0.82278059 -0.05 0.018079578 -0.054843997 -1.1716955e-15 0.0074923744
0.81655169 -0.05 0.018858549 -0.061674835 7.5130762e-16 0.0082682864
0.81032211 -0.05 0.019632009 -0.06896873 -3.1780151e-16 0.0090923092
0.80409186 -0.05 0.020399969 -0.076631408 8.4878657e-17 0.0099449871
0.79786092 -0.05 0.02116246 -0.08475855 -3.0635992e-16 0.010840933
0.79162932 -0.05 0.021919437 -0.093258385 1.0294361e-15 0.011769896
0.78539707 -0.05 0.022670986 -0.10225634 4.7338113e-16 0.01273955
0.77916415 -0.05 0.023417073 -0.11169997 1.8448522e-16 0.013748741
0.77293057 -0.05 0.024157665 -0.12155611 -1.3307759e-16 0.014787325
0.76669636 -0.05 0.024892823 -0.13193136 5.2234351e-16 0.015873458
0.7604615 -0.05 0.025622535 -0.1427822 3.3675904e-16 0.016990383
0.75422601 -0.05 0.026346787 -0.15415298 -3.4893817e-16 0.018145704
0.74798988 -0.05 0.027065555 -0.1660256 -4.8660603e-16 0.019338748
0.74175313 -0.05 0.02777882 -0.17844948 -3.1984826e-16 0.020570972
0.73551574 -0.05 0.02848657 -0.19143696 1.6328839e-16 0.02184211
0.72927773 -0.05 0.029188768 -0.20493799 4.2162467e-16 0.023150091
0.7230391 -0.05 0.029885448 -0.21900464 3.5782101e-16 0.024496704
0.71679986 -0.05 0.03057664 -0.23380175 -8.7191624e-16 0.025889507
0.71055999 -0.05 0.031262168 -0.2491343 -3.6049149e-16 0.027319481
0.70431951 -0.05 0.031942084 -0.26512809 -9.1670367e-18 0.028791246
0.69807841 -0.05 0.032616354 -0.2821391 6.3263309e-16 0.030407188
0.6918367 -0.05 0.033284883 -0.30092334 4.9838252e-16 0.032071099
0.68559439 -0.05 0.033947729 -0.32078855 3.5029309e-16 0.033836825
0.67935146 -0.05 0.034604794 -0.34137251 -2.1796835e-16 0.035645003
0.67310792 -0.05 0.035256087 -0.3629329 -2.8504722e-16 0.037503997
0.66686378 -0.05 0.035901494 -0.38541498 9.211365e-16 0.039415915
0.66061902 -0.05 0.036540911 -0.40867525 -1.6517304e-17 0.041363631
0.65437365 -0.05 0.037174425 -0.43301562 -6.2754551e-16 0.043361472
0.64812768 -0.05 0.03780195 -0.45850048 3.5560565e-16 0.045418532
0.64188111 -0.05 0.038423319 -0.48497329 -4.2767858e-16 0.047519015
0.63563391 -0.05 0.0390385 -0.512529 -9.4354434e-17 0.049670133
0.62938611 -0.05 0.039647494 -0.54132869 -1.3465447e-16 0.051875456
0.6231377 -0.05 0.040250165 -0.5713187 -4.0760867e-16 0.054126724
0.61688867 -0.05 0.040846427 -0.60246958 -5.7012237e-17 0.056423993
0.61063903 -0.05 0.041436277 -0.63512887 1.0905867e-16 0.058781946
0.60438878 -0.05 0.042019571 -0.66922076 9.4520242e-17 0.061196521
0.59813791 -0.05 0.042596237 -0.70480324 -2.2902236e-16 0.063662287
0.59188643 -0.05 0.043166191 -0.74198279 2.3145078e-16 0.066180941
0.58563433 -0.05 0.043729342 -0.78075782 -1.7309842e-16 0.068744831
0.5793816 -0.05 0.044285574 -0.82126649 2.945528e-16 0.071353835
0.57312827 -0.05 0.044834743 -0.8633922 -4.3180594e-17 0.074002351
0.56687431 -0.05 0.045376816 -0.90746128 5.7710539e-16 0.076705715
0.56061972 -0.05 0.04591167 -0.95357917 -6.2833761e-17 0.079450368
0.55436451 -0.05 0.046439145 -1.0016706 5.7636519e-16 0.082231063
0.54810868 -0.05 0.046959168 -1.0522758 -1.0797365e-16 0.085096544
0.54185221 -0.05 0.047471577 -1.1062018 -1.5953157e-16 0.088127712
0.53559512 -0.05 0.047976233 -1.1650123 -1.1338777e-16 0.091488098
0.5293374 -0.05 0.048473065 -1.2305015 5.2018386e-16 0.095184996
0.52307905 -0.05 0.048961901 -1.301057 2.5810246e-16 0.09896677
0.51682008 -0.05 0.049442599 -1.3747601 6.5245651e-17 0.10269944
0.51056046 -0.05 0.04991499 -1.4511228 2.9123518e-16 0.1063766
0.50430023 -0.05 0.050378939 -1.5301997 -4.9730259e-16 0.11002126
0.49803935 -0.05 0.050834319 -1.6126164 3.8434743e-16 0.11363526
0.49177785 -0.05 0.051280935 -1.6983941 8.6800016e-17 0.11720509
0.48551572 -0.05 0.051718583 -1.7876385 9.4696675e-17 0.12072248
0.47925295 -0.05 0.052147138 -1.8806184 1.1139338e-17 0.12418854
0.47298956 -0.05 0.052566461 -1.9781314 2.1514577e-16 0.12748822
0.46672555 -0.05 0.052976304 -2.0803599 -2.5605515e-16 0.13022391
0.4604609 -0.05 0.05337645 -2.1872924 2.3541876e-16 0.13295025
0.45419564 -0.05 0.053766738 -2.2986771 1.6119163e-17 0.13608821
0.44792975 -0.05 0.054146984 -2.4149459 -4.00808e-17 0.13904921
0.44166325 -0.05 0.054516962 -2.5361854 -1.5502392e-17 0.14181674
0.43539615 -0.05 0.054876432 -2.6624688 -1.2345789e-16 0.14436317
0.42912843 -0.05 0.055225182 -2.7939445 -1.0519889e-17 0.14666442
0.42286012 -0.05 0.055563016 -2.9310705 8.2697592e-17 0.14868619
0.41659121 -0.05 0.055889682 -3.0739797 -4.0389601e-17 0.15037324
0.41032172 -0.05 0.056204904 -3.2228828 -2.4635996e-16 0.15169298
0.40405166 -0.05 0.056508454 -3.3781802 -2.7468421e-17 0.15261669
0.39778102 -0.05 0.05680005 -3.5401309 1.4681952e-17 0.15305658
0.39150983 -0.05 0.057079382 -3.7084167 -9.510193e-17 0.15298603
0.3852381 -0.05 0.057346234 -3.8838672 -1.3710529e-16 0.15237476
0.37896584 -0.05 0.057600365 -4.0670878 9.4179294e-17 0.15112299
0.37269306 -0.05 0.057841377 -4.2581093 2.9153579e-16 0.14910615
0.36641978 -0.05 0.05806895 -4.4569824 4.2109503e-17 0.1463842
0.36014602 -0.05 0.058282841 -4.6645283 -2.5314973e-16 0.14282157
0.35387179 -0.05 0.058482714 -4.8804729 1.5034765e-16 0.13831057
0.34759713 -0.05 0.058668211 -5.1051195 1.1098965e-16 0.1327551
0.34132203 -0.05 0.058838946 -5.3381833 3.5157322e-17 0.12602507
0.33504656 -0.05 0.058994588 -5.5802494 -2.2146721e-17 0.11804992
0.32877071 -0.05 0.059134746 -5.8320203 -5.9677491e-17 0.10865486
0.32249454 -0.05 0.059258997 -6.09239 2.4447582e-17 0.097788848
0.31621807 -0.05 0.059366949 -6.3621705 1.0338116e-16 0.085297078
0.30994132 -0.05 0.059458187 -6.6420414 1.1914102e-16 0.071249656
0.30366435 -0.05 0.059532277 -6.9177937 -2.6198382e-17 0.055622513
