# yPlus  FACE_DATA 448
# x y z  yPlus
0.2966314 -0.05 -0.060416402 24.944449
0.29099452 -0.05 -0.060353393 24.461691
0.28543895 -0.05 -0.060276724 24.049976
0.27996358 -0.05 -0.060186594 23.650164
0.2745673 -0.05 -0.060083263 23.265447
0.26924898 -0.05 -0.059967016 22.894018
0.26400754 -0.05 -0.059838119 22.535963
0.25884193 -0.05 -0.05969681 22.19008
0.25375109 -0.05 -0.059543366 21.856864
0.24873397 -0.05 -0.059378026 21.535981
0.24378956 -0.05 -0.059200964 21.226435
0.23891684 -0.05 -0.059012452 20.927655
0.23411482 -0.05 -0.058812723 20.639488
0.22938253 -0.05 -0.058602032 20.360153
0.22471899 -0.05 -0.058380615 20.090019
0.22012324 -0.05 -0.058148636 19.829924
0.21559438 -0.05 -0.057906352 19.580217
0.21113145 -0.05 -0.057653978 19.341313
0.20673354 -0.05 -0.057391639 19.111864
0.20239977 -0.05 -0.057119592 18.89241
0.19812925 -0.05 -0.056838044 18.683172
0.1939211 -0.05 -0.05654722 18.484125
0.18977448 -0.05 -0.056247318 18.295917
0.18568851 -0.05 -0.055938412 18.116854
0.18166239 -0.05 -0.055620749 17.94706
0.17769529 -0.05 -0.055294516 17.787197
0.17378639 -0.05 -0.054959865 17.635558
0.1699349 -0.05 -0.054616997 17.493395
0.16614002 -0.05 -0.054266069 17.359405
0.162401 -0.05 -0.053907211 17.233658
0.15871706 -0.05 -0.053540548 17.114655
0.15508746 -0.05 -0.053166299 17.003031
0.15151146 -0.05 -0.052784571 16.898373
0.14798833 -0.05 -0.0523955 16.799245
0.14451735 -0.05 -0.051999231 16.70634
0.14109782 -0.05 -0.05159585 16.619185
0.13772905 -0.05 -0.051185511 16.540166
0.13441035 -0.05 -0.050768324 16.472591
0.13114103 -0.05 -0.050344451 16.420469
0.12792045 -0.05 -0.049913999 16.386925
0.12474797 -0.05 -0.049476986 16.36465
0.12162292 -0.05 -0.04903359 16.337713
0.11854468 -0.05 -0.048583928 16.301063
0.11551263 -0.05 -0.048128009 16.266646
0.11252618 -0.05 -0.047665901 16.237637
0.10958471 -0.05 -0.047197731 16.213389
0.10668766 -0.05 -0.046723526 16.193363
0.10383442 -0.05 -0.046243371 16.175378
0.10102442 -0.05 -0.045757419 16.162153
0.09825712 -0.05 -0.045265605 16.152582
0.095531982 -0.05 -0.044767978 16.145873
0.092848448 -0.05 -0.044264674 16.144994
0.090206018 -0.05 -0.043755605 16.146779
0.08760417 -0.05 -0.043240828 16.145001
0.085042393 -0.05 -0.042720406 16.13276
0.082520193 -0.05 -0.042194356 16.0806
0.080037083 -0.05 -0.041662717 15.988799
0.077592614 -0.05 -0.041125377 15.974883
0.07518633 -0.05 -0.040582323 15.99053
0.072817762 -0.05 -0.04003362 16.014235
0.070486466 -0.05 -0.039479283 16.045674
0.068192039 -0.05 -0.038919193 16.085857
0.06593407 -0.05 -0.038353303 16.137401
0.063712147 -0.05 -0.037781603 16.203753
0.061525896 -0.05 -0.037203998 16.277439
0.059374947 -0.05 -0.036620397 16.341927
0.057258939 -0.05 -0.036030732 16.391845
0.055177532 -0.05 -0.035434897 16.433485
0.053130378 -0.05 -0.034832851 16.471805
0.051117187 -0.05 -0.034224402 16.514058
0.04913767 -0.05 -0.033609393 16.554987
0.047191527 -0.05 -0.032987756 16.598607
0.045278506 -0.05 -0.032359302 16.639669
0.043398374 -0.05 -0.031723842 16.681938
0.041550942 -0.05 -0.031081096 16.726255
0.039736012 -0.05 -0.030430868 16.77634
0.037953392 -0.05 -0.029773005 16.834942
0.036202951 -0.05 -0.029107219 16.895947
0.034484591 -0.05 -0.0284332 16.955528
0.032798243 -0.05 -0.027750633 17.012915
0.031143861 -0.05 -0.027059203 17.065712
0.029521441 -0.05 -0.026358555 17.122896
0.027931047 -0.05 -0.02564826 17.177976
0.026372753 -0.05 -0.024927935 17.212661
0.024846717 -0.05 -0.024197099 17.236137
0.023353155 -0.05 -0.023455238 17.263628
0.021892336 -0.05 -0.022701847 17.309555
0.020464652 -0.05 -0.0219363 17.347422
0.019070519 -0.05 -0.021158035 17.314651
0.017710521 -0.05 -0.020366335 17.191123
0.016385328 -0.05 -0.01956045 16.993135
0.015095706 -0.05 -0.018739647 16.786912
0.013842609 -0.05 -0.017903092 16.668726
0.012627173 -0.05 -0.017049941 16.740101
0.011450732 -0.05 -0.016179317 16.948082
0.010314848 -0.05 -0.015290243 17.334824
0.0092212812 -0.05 -0.014381686 17.885583
0.0081721058 -0.05 -0.013452815 18.68718
0.00716982 -0.05 -0.012502817 19.524189
0.0062171672 -0.05 -0.011530633 20.191264
0.0053172126 -0.05 -0.010535569 20.634855
0.0044736903 -0.05 -0.0095174955 20.845835
0.003690474 -0.05 -0.0084760745 20.755886
0.0029716494 -0.05 -0.0074115224 20.340481
0.0023219424 -0.05 -0.0063252033 19.616986
0.0017459134 -0.05 -0.0052186334 18.530448
0.0012478794 -0.05 -0.0040943514 17.026979
0.00083172905 -0.05 -0.0029564306 15.085447
0.00050050175 -0.05 -0.0018092995 12.588739
0.00025590096 -0.05 -0.00065827911 9.4752624
9.7954239e-05 -0.05 0.00049057204 6.3687357
2.510909e-05 -0.05 0.0016312028 2.6936309
0.99686083 -0.05 -0.0070184295 75.490543
0.99064004 -0.05 -0.0078596106 70.382402
0.9844183 -0.05 -0.0086937957 72.998349
0.97819563 -0.05 -0.0095210118 72.336794
0.97197205 -0.05 -0.010341365 72.315799
0.9657476 -0.05 -0.011155015 72.129122
0.95952226 -0.05 -0.011961944 71.951974
0.95329607 -0.05 -0.012762215 71.752769
0.94706905 -0.05 -0.013555984 71.541312
0.94084121 -0.05 -0.014343336 71.319905
0.93461256 -0.05 -0.015124275 71.089052
0.92838313 -0.05 -0.015898862 70.849764
0.92215291 -0.05 -0.016667173 70.602577
0.91592193 -0.05 -0.017429243 70.34851
0.90969021 -0.05 -0.018185224 70.087868
0.90345774 -0.05 -0.018935113 69.820759
0.89722456 -0.05 -0.019678942 69.547867
0.89099067 -0.05 -0.020416848 69.269506
0.88475608 -0.05 -0.021148843 68.98581
0.8785208 -0.05 -0.021874871 68.697271
0.87228483 -0.05 -0.02259507 68.403578
0.86604821 -0.05 -0.023309507 68.105279
0.85981093 -0.05 -0.024018156 67.802288
0.85357301 -0.05 -0.024721101 67.495085
0.84733444 -0.05 -0.025418407 67.18364
0.84109525 -0.05 -0.026110057 66.868274
0.83485543 -0.05 -0.026796018 66.548494
0.82861501 -0.05 -0.027476466 66.22501
0.82237398 -0.05 -0.028151358 65.897378
0.81613235 -0.05 -0.028820649 65.566088
0.80989013 -0.05 -0.029484418 65.230671
0.80364732 -0.05 -0.030142676 64.891779
0.79740395 -0.05 -0.030795454 64.54929
0.79115999 -0.05 -0.031442707 64.202735
0.78491548 -0.05 -0.032084521 63.852796
0.77867041 -0.05 -0.032720862 63.499151
0.77242477 -0.05 -0.033351698 63.141586
0.76617859 -0.05 -0.033977091 62.780906
0.75993186 -0.05 -0.034597025 62.416265
0.75368459 -0.05 -0.035211489 62.048299
0.74743679 -0.05 -0.035820459 61.676589
0.74118845 -0.05 -0.036423917 61.301046
0.73493959 -0.05 -0.037021848 60.921823
0.72869019 -0.05 -0.037614218 60.538944
0.72244027 -0.05 -0.03820106 60.152256
0.71618983 -0.05 -0.038782403 59.76222
0.70993888 -0.05 -0.039358073 59.367992
0.7036874 -0.05 -0.039928121 58.97026
0.69743541 -0.05 -0.040492512 58.568619
0.69118291 -0.05 -0.041051153 58.162788
0.6849299 -0.05 -0.041604101 57.753053
0.67867638 -0.05 -0.042151258 57.339188
0.67242236 -0.05 -0.042692634 56.921342
0.66616783 -0.05 -0.043228112 56.498924
0.65991278 -0.05 -0.043757592 56.071993
0.65365724 -0.05 -0.04428116 55.640913
0.6474012 -0.05 -0.044798728 55.204986
0.64114466 -0.05 -0.04531013 54.7641
0.63488761 -0.05 -0.045815334 54.317826
0.62863007 -0.05 -0.046314343 53.866337
0.62237202 -0.05 -0.046807017 53.408636
0.61611347 -0.05 -0.047293273 52.944881
0.60985442 -0.05 -0.047773108 52.474189
0.60359488 -0.05 -0.048246377 51.995952
0.59733484 -0.05 -0.048713008 51.509546
0.5910743 -0.05 -0.049172917 51.014316
0.58481326 -0.05 -0.049626013 50.5091
0.57855171 -0.05 -0.050072181 49.992842
0.57228968 -0.05 -0.050511275 49.464136
0.56602716 -0.05 -0.050943264 48.922545
0.55976414 -0.05 -0.051368025 48.366464
0.55350061 -0.05 -0.051785396 47.795258
0.5472366 -0.05 -0.052195305 47.208743
0.54097209 -0.05 -0.052597591 46.607649
0.5347071 -0.05 -0.052992114 45.993592
0.5284416 -0.05 -0.053378802 45.370881
0.52217563 -0.05 -0.053757486 44.742215
0.51590916 -0.05 -0.05412802 44.100715
0.50964221 -0.05 -0.054490239 43.448485
0.50337478 -0.05 -0.054844006 42.788651
0.49710686 -0.05 -0.055189194 42.123414
0.49083848 -0.05 -0.055525608 41.455159
0.48456961 -0.05 -0.055853043 40.786035
0.47830027 -0.05 -0.056171377 40.117075
0.47203048 -0.05 -0.05648047 39.447527
0.46576022 -0.05 -0.056780071 38.77741
0.45948951 -0.05 -0.057069967 38.107132
0.45321835 -0.05 -0.057349996 37.437487
0.44694675 -0.05 -0.057619973 36.770468
0.44067471 -0.05 -0.057879673 36.114694
0.43440225 -0.05 -0.058128855 35.474526
0.42812937 -0.05 -0.05836731 34.852754
0.42185608 -0.05 -0.058594838 34.25151
0.4155824 -0.05 -0.058811191 33.669075
0.40930833 -0.05 -0.05901609 33.106151
0.4030339 -0.05 -0.059209311 32.56033
0.39675911 -0.05 -0.059390569 32.026961
0.39048398 -0.05 -0.059559554 31.505252
0.38420853 -0.05 -0.059716051 30.995358
0.37793276 -0.05 -0.059859821 30.497664
0.37165671 -0.05 -0.059990464 30.010617
0.3653804 -0.05 -0.060107662 29.533879
0.35910385 -0.05 -0.060211172 29.067498
0.35282707 -0.05 -0.060300656 28.61145
0.34655012 -0.05 -0.060375761 28.164919
0.340273 -0.05 -0.060436097 27.727575
0.33399575 -0.05 -0.060481337 27.299443
0.32771842 -0.05 -0.060511088 26.880815
0.32144103 -0.05 -0.060524928 26.469928
0.31516362 -0.05 -0.060522466 26.067682
0.30888624 -0.05 -0.06050329 25.676976
0.30260894 -0.05 -0.060466964 25.353956
0.29768685 -0.05 0.059586861 23.022133
0.29204973 -0.05 0.059623009 23.394694
0.28649368 -0.05 0.059644067 23.715292
0.28101756 -0.05 0.059650257 24.03186
0.2756203 -0.05 0.059641857 24.343894
0.27030076 -0.05 0.059619171 24.651564
0.26505786 -0.05 0.059582486 24.951773
0.25989056 -0.05 0.059532055 25.245969
0.25479781 -0.05 0.059468177 25.534298
0.24977856 -0.05 0.059391108 25.817844
0.2448318 -0.05 0.05930104 26.094618
0.23995652 -0.05 0.059198263 26.365142
0.23515173 -0.05 0.059083027 26.626666
0.23041646 -0.05 0.058955606 26.875117
0.22574975 -0.05 0.05881625 27.112263
0.22115064 -0.05 0.05866514 27.338001
0.2166182 -0.05 0.058502551 27.550333
0.21215153 -0.05 0.058328714 27.753431
0.20774969 -0.05 0.058143769 27.949858
0.2034118 -0.05 0.057947991 28.145947
0.199137 -0.05 0.057741601 28.3439
0.19492439 -0.05 0.057524838 28.539709
0.19077311 -0.05 0.057297916 28.725967
0.18668236 -0.05 0.057060926 28.891712
0.18265127 -0.05 0.056814128 29.032199
0.17867904 -0.05 0.056557722 29.148126
0.17476486 -0.05 0.056291875 29.25766
0.17090793 -0.05 0.056016804 29.381527
0.16710747 -0.05 0.055732678 29.53552
0.16336272 -0.05 0.055439641 29.704944
0.15967291 -0.05 0.055137831 29.887641
0.15603728 -0.05 0.05482748 30.084501
0.15245512 -0.05 0.05450871 30.302083
0.14892569 -0.05 0.054181667 30.546806
0.14544828 -0.05 0.053846509 30.818915
0.14202218 -0.05 0.053503337 31.106551
0.1386467 -0.05 0.053152315 31.399245
0.13532118 -0.05 0.052793564 31.690348
0.13204492 -0.05 0.052427261 31.974963
0.12881727 -0.05 0.052053521 32.252152
0.12563759 -0.05 0.051672376 32.51888
0.12250523 -0.05 0.051284015 32.774692
0.11941955 -0.05 0.050888566 33.020392
0.11637995 -0.05 0.050486047 33.254506
0.11338584 -0.05 0.05007654 33.477023
0.11043659 -0.05 0.049660179 33.687744
0.10753164 -0.05 0.049237003 33.887689
0.1046704 -0.05 0.048807108 34.074964
0.10185229 -0.05 0.048370656 34.252231
0.099076765 -0.05 0.047927593 34.419743
0.096343296 -0.05 0.047477974 34.575589
0.093651325 -0.05 0.047021949 34.722616
0.09100035 -0.05 0.046559435 34.860466
0.08838985 -0.05 0.046090502 34.986438
0.085819317 -0.05 0.045615218 35.104191
0.083288254 -0.05 0.045133613 35.211347
0.080796177 -0.05 0.044645731 35.310853
0.078342635 -0.05 0.04415147 35.400347
0.075927171 -0.05 0.043650824 35.479535
0.073549319 -0.05 0.043143866 35.549115
0.071208634 -0.05 0.04263062 35.611187
0.068904711 -0.05 0.042110972 35.664971
0.066637136 -0.05 0.041584885 35.708457
0.064405502 -0.05 0.041052356 35.741796
0.062209429 -0.05 0.040513294 35.765291
0.060048548 -0.05 0.039967616 35.778212
0.057922497 -0.05 0.03941526 35.780453
0.055830931 -0.05 0.038856126 35.772204
0.053773504 -0.05 0.038290181 35.753168
0.051749923 -0.05 0.037717236 35.72676
0.049759895 -0.05 0.03713714 35.686772
0.047803119 -0.05 0.036549829 35.638283
0.04587934 -0.05 0.035955121 35.579238
0.043988322 -0.05 0.035352828 35.511354
0.04212987 -0.05 0.034742676 35.433196
0.040303785 -0.05 0.034124471 35.342793
0.038509869 -0.05 0.033498064 35.2417
0.036747988 -0.05 0.032863169 35.132002
0.035018039 -0.05 0.032219478 35.011487
0.033319948 -0.05 0.031566679 34.881844
0.031653659 -0.05 0.030904454 34.740965
0.030019167 -0.05 0.030232452 34.591306
0.028416525 -0.05 0.029550239 34.431199
0.026845803 -0.05 0.028857435 34.2611
0.025307147 -0.05 0.028153554 34.082667
0.023800768 -0.05 0.027438077 33.892861
0.022326924 -0.05 0.026710496 33.693646
0.020885996 -0.05 0.025970179 33.485139
0.019478389 -0.05 0.025216557 33.263765
0.018104676 -0.05 0.024448899 33.034707
0.016765514 -0.05 0.023666448 32.788856
0.015461654 -0.05 0.022868455 32.531923
0.014194036 -0.05 0.022054071 32.256563
0.012963783 -0.05 0.02122243 31.964135
0.011772211 -0.05 0.020372632 31.647949
0.010620865 -0.05 0.019503674 31.308183
0.0095114867 -0.05 0.018614492 30.929681
0.0084461358 -0.05 0.017704219 30.505486
0.0074272957 -0.05 0.016771997 30.026203
0.0064576906 -0.05 0.01581672 29.480618
0.0055403732 -0.05 0.014837638 28.843734
0.0046790746 -0.05 0.013834559 28.097279
0.003877662 -0.05 0.012807075 27.197895
0.0031402243 -0.05 0.011755331 26.115933
0.0024715107 -0.05 0.010680607 24.8202
0.0018761074 -0.05 0.0095843406 23.271183
0.0013583756 -0.05 0.0084689926 21.424999
0.00092227489 -0.05 0.0073385674 19.252944
0.00057092204 -0.05 0.0061974397 16.730124
0.00030611391 -0.05 0.0050508997 13.781773
0.0001279846 -0.05 0.0039050043 10.371921
3.5088292e-05 -0.05 0.0027658313 7.1381711
0.99686874 -0.05 -0.0061191119 6.7239192
0.9906637 -0.05 -0.005168644 1.3108076
0.9844576 -0.05 -0.0042251544 1.549962
0.97825045 -0.05 -0.0032886164 1.4229301
0.97204226 -0.05 -0.0023589239 1.3639385
0.96583307 -0.05 -0.0014359188 1.5301615
0.9596229 -0.05 -0.00051961823 1.3692802
0.95341175 -0.05 0.00039004119 1.4767145
0.94719965 -0.05 0.001293214 1.3231339
0.94098662 -0.05 0.0021899845 1.3904112
0.93477268 -0.05 0.0030803576 1.3039987
0.92855783 -0.05 0.0039643932 1.2775627
0.92234208 -0.05 0.0048421678 1.2014347
0.91612547 -0.05 0.0057137164 1.087662
0.90990801 -0.05 0.0065791897 0.93640065
0.90368971 -0.05 0.007438585 0.7324427
0.89747057 -0.05 0.008291934 0.42315746
0.89125062 -0.05 0.0091393724 0.45590666
0.88502987 -0.05 0.0099809138 0.69084738
0.87880832 -0.05 0.010816501 0.86323353
0.872586 -0.05 0.011646273 1.0155473
0.8663629 -0.05 0.012470295 1.1566251
0.86013904 -0.05 0.01328854 1.2889734
0.85391445 -0.05 0.014101096 1.4169994
0.84768911 -0.05 0.014908022 1.5417961
0.84146305 -0.05 0.015709307 1.6652949
0.83523627 -0.05 0.016504913 1.7870933
0.82900878 -0.05 0.017295018 1.9102445
0.82278059 -0.05 0.018079578 2.0336481
0.81655169 -0.05 0.018858549 2.1561807
0.81032211 -0.05 0.019632009 2.2796189
0.80409186 -0.05 0.020399969 2.4025229
0.79786092 -0.05 0.02116246 2.5262706
0.79162932 -0.05 0.021919437 2.6493468
0.78539707 -0.05 0.022670986 2.773628
0.77916415 -0.05 0.023417073 2.8984285
0.77293057 -0.05 0.024157665 3.0230754
0.76669636 -0.05 0.024892823 3.1489313
0.7604615 -0.05 0.025622535 3.2754469
0.75422601 -0.05 0.026346787 3.4029088
0.74798988 -0.05 0.027065555 3.531108
0.74175313 -0.05 0.02777882 3.6603625
0.73551574 -0.05 0.02848657 3.7908181
0.72927773 -0.05 0.029188768 3.9217496
0.7230391 -0.05 0.029885448 4.0535959
0.71679986 -0.05 0.03057664 4.1877818
0.71055999 -0.05 0.031262168 4.322502
0.70431951 -0.05 0.031942084 4.4586131
0.69807841 -0.05 0.032616354 4.5990156
0.6918367 -0.05 0.033284883 4.749066
0.68559439 -0.05 0.033947729 4.9027554
0.67935146 -0.05 0.034604794 5.0570431
0.67310792 -0.05 0.035256087 5.2137214
0.66686378 -0.05 0.035901494 5.3722501
0.66061902 -0.05 0.036540911 5.5313177
0.65437365 -0.05 0.037174425 5.6930598
0.64812768 -0.05 0.03780195 5.8575218
0.64188111 -0.05 0.038423319 6.0235545
0.63563391 -0.05 0.0390385 6.1916346
0.62938611 -0.05 0.039647494 6.3624942
0.6231377 -0.05 0.040250165 6.5357317
0.61688867 -0.05 0.040846427 6.7108698
0.61063903 -0.05 0.041436277 6.8896586
0.60438878 -0.05 0.042019571 7.0714463
0.59813791 -0.05 0.042596237 7.256293
0.59188643 -0.05 0.043166191 7.444579
0.58563433 -0.05 0.043729342 7.6360349
0.5793816 -0.05 0.044285574 7.8310878
0.57312827 -0.05 0.044834743 8.0287528
0.56687431 -0.05 0.045376816 8.2303536
0.56061972 -0.05 0.04591167 8.4360564
0.55436451 -0.05 0.046439145 8.6454261
0.54810868 -0.05 0.046959168 8.8602357
0.54185221 -0.05 0.047471577 9.0836404
0.53559512 -0.05 0.047976233 9.321185
0.5293374 -0.05 0.048473065 9.5788139
0.52307905 -0.05 0.048961901 9.848674
0.51682008 -0.05 0.049442599 10.122772
0.51056046 -0.05 0.04991499 10.399066
0.50430023 -0.05 0.050378939 10.677736
0.49803935 -0.05 0.050834319 10.960591
0.49177785 -0.05 0.051280935 11.247445
0.48551572 -0.05 0.051718583 11.538268
0.47925295 -0.05 0.052147138 11.833683
0.47298956 -0.05 0.052566461 12.135539
0.46672555 -0.05 0.052976304 12.44398
0.4604609 -0.05 0.05337645 12.758509
0.45419564 -0.05 0.053766738 13.078338
0.44792975 -0.05 0.054146984 13.403809
0.44166325 -0.05 0.054516962 13.734946
0.43539615 -0.05 0.054876432 14.071376
0.42912843 -0.05 0.055225182 14.413327
0.42286012 -0.05 0.055563016 14.761329
0.41659121 -0.05 0.055889682 15.115505
0.41032172 -0.05 0.056204904 15.475876
0.40405166 -0.05 0.056508454 15.8432
0.39778102 -0.05 0.05680005 16.217211
0.39150983 -0.05 0.057079382 16.59698
0.3852381 -0.05 0.057346234 16.983581
0.37896584 -0.05 0.057600365 17.378072
0.37269306 -0.05 0.057841377 17.779629
0.36641978 -0.05 0.05806895 18.188163
0.36014602 -0.05 0.058282841 18.604617
0.35387179 -0.05 0.058482714 19.028563
0.34759713 -0.05 0.058668211 19.45949
0.34132203 -0.05 0.058838946 19.89693
0.33504656 -0.05 0.058994588 20.341185
0.32877071 -0.05 0.059134746 20.79371
0.32249454 -0.05 0.059258997 21.251434
0.31621807 -0.05 0.059366949 21.716039
0.30994132 -0.05 0.059458187 22.18791
0.30366435 -0.05 0.059532277 22.618263
