# p  FACE_DATA 448
# x y z  p
0.29928876 -0.05 -0.058268753 99374.681
0.2936547 -0.05 -0.0584581 99368.09
0.28810127 -0.05 -0.058630161 99361.109
0.28262736 -0.05 -0.058785186 99354.35
0.27723185 -0.05 -0.058923481 99347.638
0.27191366 -0.05 -0.059045385 99341.048
0.26667171 -0.05 -0.059151212 99334.504
0.26150495 -0.05 -0.059241244 99328.102
0.25641234 -0.05 -0.059315807 99321.686
0.25139285 -0.05 -0.059375186 99315.443
0.24644547 -0.05 -0.059419602 99309.281
0.24156919 -0.05 -0.059449369 99303.188
0.23676305 -0.05 -0.059464767 99297.198
0.23202607 -0.05 -0.059466092 99291.251
0.2273573 -0.05 -0.059453626 99285.379
0.22275578 -0.05 -0.059427573 99279.679
0.2182206 -0.05 -0.059388232 99273.969
0.21375084 -0.05 -0.059335861 99268.422
0.2093456 -0.05 -0.059270624 99262.995
0.205004 -0.05 -0.059192818 99257.617
0.20072516 -0.05 -0.05910269 99252.352
0.19650821 -0.05 -0.059000504 99247.063
0.19235231 -0.05 -0.058886494 99241.907
0.18825663 -0.05 -0.058760776 99236.937
0.18422032 -0.05 -0.058623631 99231.958
0.18024259 -0.05 -0.058475282 99227.171
0.17632263 -0.05 -0.058315919 99222.394
0.17245965 -0.05 -0.058145778 99217.731
0.16865287 -0.05 -0.05796505 99213.101
0.16490153 -0.05 -0.057773902 99208.651
0.16120488 -0.05 -0.05757249 99204.267
0.15756216 -0.05 -0.057361067 99199.902
0.15397266 -0.05 -0.057139775 99195.698
0.15043565 -0.05 -0.05690878 99191.509
0.14695041 -0.05 -0.05666826 99187.471
0.14351626 -0.05 -0.056418334 99183.546
0.14013249 -0.05 -0.056159184 99179.743
0.13679844 -0.05 -0.055890952 99176.075
0.13351343 -0.05 -0.05561383 99172.391
0.13027682 -0.05 -0.055327953 99168.883
0.12708796 -0.05 -0.055033371 99165.519
0.12394619 -0.05 -0.054730289 99162.09
0.12085091 -0.05 -0.054418852 99158.78
0.1178015 -0.05 -0.054099096 99155.63
0.11479736 -0.05 -0.053771118 99152.62
0.11183788 -0.05 -0.05343507 99149.67
0.1089225 -0.05 -0.053091004 99146.998
0.10605063 -0.05 -0.052739036 99144.311
0.1032217 -0.05 -0.052379339 99141.706
0.10043516 -0.05 -0.052011876 99139.366
0.097690479 -0.05 -0.051636717 99137.008
0.094987108 -0.05 -0.051254025 99134.735
0.092324542 -0.05 -0.050863735 99132.791
0.089702261 -0.05 -0.050465927 99130.837
0.087119759 -0.05 -0.050060684 99129.181
0.084576542 -0.05 -0.049648049 99127.506
0.082072125 -0.05 -0.04922808 99126.071
0.079606056 -0.05 -0.048800687 99124.884
0.077177877 -0.05 -0.048365876 99123.872
0.074787124 -0.05 -0.047923735 99122.867
0.072433355 -0.05 -0.047474296 99122.054
0.070116159 -0.05 -0.04701746 99121.63
0.067835124 -0.05 -0.046553199 99121.458
0.06558984 -0.05 -0.04608152 99121.552
0.063379927 -0.05 -0.045602345 99121.894
0.061205013 -0.05 -0.045115599 99122.365
0.059064734 -0.05 -0.044621232 99123.046
0.056958745 -0.05 -0.044119153 99124.056
0.054886696 -0.05 -0.043609335 99125.36
0.052848289 -0.05 -0.043091602 99127.461
0.050843231 -0.05 -0.042565808 99129.889
0.048871215 -0.05 -0.042031898 99132.679
0.046931982 -0.05 -0.041489696 99135.623
0.045025292 -0.05 -0.040939022 99139.024
0.043150944 -0.05 -0.040379607 99143.278
0.041308732 -0.05 -0.039811262 99148.325
0.039498453 -0.05 -0.039233844 99154.12
0.037719967 -0.05 -0.03864707 99160.661
0.035973163 -0.05 -0.038050636 99167.575
0.034257954 -0.05 -0.03744423 99175.101
0.032574283 -0.05 -0.036827539 99183.842
0.03092213 -0.05 -0.03620021 99194.098
0.029301539 -0.05 -0.035561808 99205.935
0.027712567 -0.05 -0.034911951 99218.993
0.026155349 -0.05 -0.034250149 99233.258
0.02463008 -0.05 -0.033575879 99249.59
0.023137005 -0.05 -0.032888624 99268.161
0.021676488 -0.05 -0.032187745 99289.384
0.020248919 -0.05 -0.031472658 99312.696
0.018854848 -0.05 -0.030742621 99338.367
0.017494915 -0.05 -0.029996856 99366.004
0.016169848 -0.05 -0.029234596 99397.417
0.014880564 -0.05 -0.028454965 99433.195
0.013628161 -0.05 -0.027657069 99474.506
0.012413932 -0.05 -0.026839971 99521.89
0.011239394 -0.05 -0.026002628 99576.765
0.010106258 -0.05 -0.025143927 99640.235
0.0090165603 -0.05 -0.024262944 99712.804
0.0079727594 -0.05 -0.023358758 99793.982
0.0069775489 -0.05 -0.022430187 99883.546
0.0060339596 -0.05 -0.0214764 99981.276
0.0051457161 -0.05 -0.020497101 100093.28
0.0043166733 -0.05 -0.019491778 100215.76
0.0035509223 -0.05 -0.018460466 100349.77
0.0028532456 -0.05 -0.017404314 100494.51
0.0022282665 -0.05 -0.016324635 100647.35
0.0016804114 -0.05 -0.01522377 100804.1
0.0012137477 -0.05 -0.014105616 100959.82
0.00083150959 -0.05 -0.012974459 101109.07
0.00053563716 -0.05 -0.011835539 101246.5
0.00032642901 -0.05 -0.010694909 101363.88
0.00020260509 -0.05 -0.0095586819 101457.01
0.99642652 -0.05 0.026416224 100315.94
0.99024961 -0.05 0.025297459 100280.99
0.98407144 -0.05 0.02418564 100248.3
0.97789203 -0.05 0.023080742 100225.79
0.97171141 -0.05 0.021982659 100204.93
0.9655296 -0.05 0.020891233 100186.32
0.95934662 -0.05 0.019806483 100169.13
0.9531625 -0.05 0.018728345 100153.07
0.94697724 -0.05 0.017656665 100138
0.94079088 -0.05 0.016591361 100123.69
0.93460343 -0.05 0.015532425 100110.28
0.92841491 -0.05 0.014479801 100097.4
0.92222531 -0.05 0.013433412 100085.31
0.91603468 -0.05 0.012393221 100073.64
0.90984304 -0.05 0.011359081 100062.45
0.90365039 -0.05 0.010330994 100051.69
0.89745674 -0.05 0.009308929 100041.49
0.89126214 -0.05 0.0082927499 100031.5
0.88506656 -0.05 0.0072824439 100021.92
0.87887001 -0.05 0.0062780677 100012.66
0.87267254 -0.05 0.0052794845 100003.67
0.86647414 -0.05 0.0042866269 99994.904
0.86027482 -0.05 0.0032995236 99986.409
0.8540746 -0.05 0.0023180885 99978.06
0.8478735 -0.05 0.0013422596 99969.967
0.84167152 -0.05 0.00037205086 99962.049
0.83546865 -0.05 -0.00059250154 99954.408
0.82926494 -0.05 -0.0015515721 99946.708
0.82306037 -0.05 -0.0025051207 99939.374
0.81685496 -0.05 -0.0034531007 99932.026
0.8106487 -0.05 -0.0043955913 99924.875
0.80444162 -0.05 -0.0053326018 99917.732
0.79823371 -0.05 -0.0062641636 99910.831
0.79202498 -0.05 -0.0071902315 99903.968
0.78581546 -0.05 -0.0081108917 99897.134
0.77960513 -0.05 -0.0090261088 99890.428
0.77339398 -0.05 -0.0099358516 99883.787
0.76718205 -0.05 -0.01084018 99877.221
0.76096933 -0.05 -0.01173908 99870.738
0.75475583 -0.05 -0.012632542 99864.307
0.74854154 -0.05 -0.013520537 99858.003
0.74232647 -0.05 -0.01440305 99851.698
0.73611063 -0.05 -0.015280067 99845.445
0.729894 -0.05 -0.01615155 99839.233
0.72367661 -0.05 -0.017017534 99833.019
0.71745847 -0.05 -0.017878049 99826.745
0.71123954 -0.05 -0.018732919 99820.639
0.70501983 -0.05 -0.019582196 99814.363
0.69879937 -0.05 -0.020425845 99808.311
0.69257814 -0.05 -0.021263772 99802.173
0.68635614 -0.05 -0.022096036 99796.099
0.68013338 -0.05 -0.022922536 99790.033
0.67390986 -0.05 -0.023743284 99783.945
0.66768555 -0.05 -0.024558163 99777.967
0.66146048 -0.05 -0.025367072 99771.993
0.65523464 -0.05 -0.026170098 99765.887
0.64900804 -0.05 -0.026967152 99759.844
0.64278065 -0.05 -0.027758069 99753.787
0.63655248 -0.05 -0.028542816 99747.705
0.63032354 -0.05 -0.029321396 99741.542
0.62409382 -0.05 -0.030093672 99735.48
0.61786331 -0.05 -0.030859558 99729.343
0.61163202 -0.05 -0.031619051 99723.166
0.60539992 -0.05 -0.032372007 99716.989
0.59916704 -0.05 -0.033118354 99710.771
0.59293335 -0.05 -0.033858008 99704.531
0.58669887 -0.05 -0.034590879 99698.232
0.58046358 -0.05 -0.03531685 99691.963
0.57422747 -0.05 -0.036035779 99685.685
0.56799055 -0.05 -0.036747629 99679.318
0.56175281 -0.05 -0.037452281 99672.944
0.55551425 -0.05 -0.038149573 99666.506
0.54927486 -0.05 -0.038839433 99660.004
0.54303464 -0.05 -0.039521699 99653.575
0.53679357 -0.05 -0.040196232 99647.106
0.53055167 -0.05 -0.040862961 99640.548
0.52430892 -0.05 -0.041521715 99633.954
0.51806532 -0.05 -0.04217235 99627.299
0.51182086 -0.05 -0.042814698 99620.658
0.50557554 -0.05 -0.043448625 99613.941
0.49932937 -0.05 -0.044074003 99607.204
0.49308231 -0.05 -0.044690637 99600.436
0.48683438 -0.05 -0.045298324 99593.694
0.48058558 -0.05 -0.045896938 99586.858
0.4743359 -0.05 -0.046486341 99579.986
0.46808533 -0.05 -0.047066283 99573.105
0.46183388 -0.05 -0.04763655 99566.212
0.45558154 -0.05 -0.04819698 99559.268
0.44932831 -0.05 -0.048747388 99552.287
0.44307418 -0.05 -0.049287548 99545.251
0.43681916 -0.05 -0.04981722 99538.199
0.43056324 -0.05 -0.050336195 99531.098
0.42430642 -0.05 -0.050844272 99523.95
0.41804871 -0.05 -0.051341202 99516.773
0.4117901 -0.05 -0.051826707 99509.576
0.40553061 -0.05 -0.052300562 99502.296
0.39927021 -0.05 -0.052762481 99495.044
0.39300893 -0.05 -0.053212156 99487.777
0.38674677 -0.05 -0.053649371 99480.447
0.38048374 -0.05 -0.054073884 99473.037
0.37421982 -0.05 -0.054485297 99465.7
0.36795504 -0.05 -0.05488329 99458.294
0.36168941 -0.05 -0.055267619 99450.861
0.35542293 -0.05 -0.055637946 99443.379
0.34915563 -0.05 -0.055993916 99435.882
0.3428875 -0.05 -0.05633514 99428.339
0.33661858 -0.05 -0.056661288 99420.706
0.33034886 -0.05 -0.056971967 99413.117
0.32407838 -0.05 -0.057266753 99405.555
0.31780716 -0.05 -0.057545256 99397.813
0.31153521 -0.05 -0.057807058 99389.693
0.30526257 -0.05 -0.058051725 99382.543
0.29497209 -0.05 0.061661491 99567.579
0.28933901 -0.05 0.061445299 99563.435
0.28378758 -0.05 0.061217662 99560.366
0.27831668 -0.05 0.06097875 99557.324
0.2729252 -0.05 0.060728789 99554.355
0.26761201 -0.05 0.060468037 99551.554
0.26237601 -0.05 0.060196729 99548.858
0.25721615 -0.05 0.059915073 99546.377
0.25213136 -0.05 0.059623321 99543.898
0.24712058 -0.05 0.05932168 99541.649
0.24218281 -0.05 0.059010298 99539.508
0.23731701 -0.05 0.058689419 99537.507
0.2325222 -0.05 0.058359248 99535.615
0.22779738 -0.05 0.058020015 99533.846
0.22314158 -0.05 0.057671928 99532.203
0.21855385 -0.05 0.057315126 99530.795
0.21403323 -0.05 0.056949839 99529.402
0.2095788 -0.05 0.056576258 99528.211
0.20518966 -0.05 0.056194484 99527.168
0.20086489 -0.05 0.05580475 99526.222
0.19660359 -0.05 0.055407236 99525.474
0.19240491 -0.05 0.055002146 99524.765
0.18826796 -0.05 0.05458965 99524.23
0.1841919 -0.05 0.054169805 99523.942
0.1801759 -0.05 0.053742833 99523.695
0.17621913 -0.05 0.053308897 99523.739
0.17232077 -0.05 0.052868128 99523.832
0.16848002 -0.05 0.052420706 99524.101
0.16469609 -0.05 0.051966766 99524.46
0.16096819 -0.05 0.051506417 99525.083
0.15729559 -0.05 0.051039763 99525.829
0.1536775 -0.05 0.050567001 99526.673
0.15011319 -0.05 0.050088221 99527.801
0.14660194 -0.05 0.049603537 99529.008
0.14314302 -0.05 0.049113076 99530.408
0.13973572 -0.05 0.048616903 99532.012
0.13637934 -0.05 0.048115155 99533.809
0.1330732 -0.05 0.047607922 99535.816
0.12981662 -0.05 0.047095349 99537.801
0.12660893 -0.05 0.046577522 99540.098
0.12344949 -0.05 0.046054444 99542.676
0.12033765 -0.05 0.045526276 99545.278
0.11727277 -0.05 0.044993116 99548.137
0.11425423 -0.05 0.044454956 99551.259
0.11128144 -0.05 0.04391185 99554.617
0.10835378 -0.05 0.043363905 99558.119
0.10547068 -0.05 0.042811134 99561.996
0.10263155 -0.05 0.042253609 99565.889
0.099835798 -0.05 0.041691463 99569.912
0.09708289 -0.05 0.041124617 99574.396
0.094372283 -0.05 0.040553106 99578.97
0.091703421 -0.05 0.039977052 99583.751
0.089075803 -0.05 0.039396351 99589.052
0.086488907 -0.05 0.038811048 99594.483
0.083942222 -0.05 0.03822119 99600.385
0.081435252 -0.05 0.037626783 99606.342
0.078967508 -0.05 0.037027851 99612.698
0.076538546 -0.05 0.036424271 99619.539
0.074147911 -0.05 0.035816017 99626.779
0.071795131 -0.05 0.035203141 99634.182
0.069479763 -0.05 0.034585645 99641.937
0.067201408 -0.05 0.0339634 99650.291
0.064959652 -0.05 0.03333635 99659.039
0.062754089 -0.05 0.032704472 99668.204
0.060584344 -0.05 0.032067659 99677.898
0.058450052 -0.05 0.031425812 99688.117
0.056350852 -0.05 0.030778853 99698.87
0.054286409 -0.05 0.030126666 99710.179
0.052256374 -0.05 0.029469203 99721.858
0.050260464 -0.05 0.028806261 99734.505
0.048298395 -0.05 0.028137679 99747.638
0.046369866 -0.05 0.027463377 99761.502
0.044474632 -0.05 0.02678316 99775.994
0.042612466 -0.05 0.026096833 99791.378
0.040783185 -0.05 0.025404113 99807.814
0.0389866 -0.05 0.024704797 99825.126
0.037222518 -0.05 0.023998727 99843.314
0.035490819 -0.05 0.02328561 99862.66
0.033791414 -0.05 0.022565137 99882.989
0.032124241 -0.05 0.021836989 99904.82
0.030489261 -0.05 0.021100849 99928.268
0.028886485 -0.05 0.020356364 99952.788
0.027315984 -0.05 0.019603105 99979.018
0.025777843 -0.05 0.018840693 100006.9
0.024272233 -0.05 0.018068651 100036.81
0.022799387 -0.05 0.01728647 100068.73
0.021359585 -0.05 0.016493652 100102.89
0.019953235 -0.05 0.015689586 100139.48
0.01858077 -0.05 0.014873717 100178.38
0.017242791 -0.05 0.014045345 100220.33
0.015939992 -0.05 0.013203739 100265.41
0.014673155 -0.05 0.012348189 100314.2
0.013443258 -0.05 0.011477885 100366.95
0.012251459 -0.05 0.010592015 100423.93
0.011099115 -0.05 0.0096897369 100484.7
0.0099878154 -0.05 0.0087701187 100550.45
0.0089193467 -0.05 0.0078321751 100620.84
0.007895805 -0.05 0.0068751307 100696.47
0.0069197098 -0.05 0.0058982421 100777.03
0.0059938322 -0.05 0.0049005259 100862.64
0.0051212553 -0.05 0.0038813689 100952.39
0.0043057151 -0.05 0.0028407452 101045.67
0.0035510932 -0.05 0.0017784216 101141.03
0.002861468 -0.05 0.00069472564 101236.24
0.0022415264 -0.05 -0.00040885075 101328.15
0.001695786 -0.05 -0.0015306679 101411.83
0.0012284931 -0.05 -0.0026680708 101482.98
0.00084342447 -0.05 -0.0038168819 101539.39
0.00054349773 -0.05 -0.0049725918 101574.45
0.00033027125 -0.05 -0.006129835 101584.64
0.00020360785 -0.05 -0.0072825547 101569.32
0.00016179116 -0.05 -0.0084247438 101526.32
0.99639417 -0.05 0.027314995 100188.19
0.99015281 -0.05 0.027986788 100212.6
0.9839107 -0.05 0.028651563 100190.49
0.97766784 -0.05 0.029309346 100184.38
0.97142426 -0.05 0.029960243 100171.97
0.96517999 -0.05 0.030604416 100161.51
0.95893503 -0.05 0.031241846 100150.39
0.95268939 -0.05 0.031872599 100139.6
0.94644309 -0.05 0.032496828 100128.93
0.94019615 -0.05 0.03311462 100118.45
0.93394858 -0.05 0.033725981 100108.22
0.9277004 -0.05 0.03433097 100098.27
0.9214516 -0.05 0.034929664 100088.52
0.91520221 -0.05 0.035522099 100079.04
0.90895224 -0.05 0.036108426 100069.75
0.9027017 -0.05 0.036688644 100060.79
0.8964506 -0.05 0.037262785 100052
0.89019896 -0.05 0.037830985 100043.46
0.88394678 -0.05 0.038393258 100035.13
0.87769406 -0.05 0.038949548 100027.06
0.87144083 -0.05 0.039499991 100019.16
0.8651871 -0.05 0.040044658 100011.48
0.85893286 -0.05 0.040583519 100003.98
0.85267812 -0.05 0.041116662 99996.672
0.84642292 -0.05 0.04164415 99989.519
0.84016723 -0.05 0.042165969 99982.542
0.83391107 -0.05 0.042682083 99975.733
0.82765445 -0.05 0.043192668 99969.03
0.82139739 -0.05 0.043697684 99962.515
0.81513988 -0.05 0.044197085 99956.091
0.80888193 -0.05 0.04469095 99949.831
0.80262353 -0.05 0.04517929 99943.663
0.79636472 -0.05 0.045662136 99937.633
0.79010548 -0.05 0.046139443 99931.708
0.78384584 -0.05 0.0466113 99925.864
0.77758578 -0.05 0.047077669 99920.139
0.77132531 -0.05 0.04753852 99914.491
0.76506443 -0.05 0.047993913 99908.929
0.75880316 -0.05 0.048443837 99903.451
0.7525415 -0.05 0.048888278 99898.041
0.74627945 -0.05 0.049327212 99892.71
0.74001702 -0.05 0.049760621 99887.436
0.73375421 -0.05 0.050188492 99882.236
0.72749102 -0.05 0.050610789 99877.104
0.72122746 -0.05 0.051027545 99872.007
0.71496353 -0.05 0.051438791 99866.946
0.70869924 -0.05 0.051844352 99861.993
0.70243458 -0.05 0.052244278 99856.994
0.69616955 -0.05 0.052638536 99852.129
0.68990418 -0.05 0.053027032 99847.244
0.68363845 -0.05 0.053409824 99842.424
0.67737238 -0.05 0.053786812 99837.624
0.67110594 -0.05 0.054158008 99832.831
0.66483917 -0.05 0.054523295 99828.11
0.65857206 -0.05 0.054882572 99823.411
0.6523046 -0.05 0.055235924 99818.671
0.6460368 -0.05 0.055583266 99813.985
0.63976866 -0.05 0.055924432 99809.336
0.6335002 -0.05 0.056259386 99804.735
0.6272314 -0.05 0.056588134 99800.128
0.62096227 -0.05 0.056910538 99795.59
0.61469282 -0.05 0.057226511 99791.028
0.60842305 -0.05 0.057536053 99786.477
0.60215295 -0.05 0.057839017 99781.934
0.59588253 -0.05 0.058135332 99777.379
0.5896118 -0.05 0.058424913 99772.852
0.58334076 -0.05 0.058707671 99768.305
0.57706942 -0.05 0.05898349 99763.779
0.57079776 -0.05 0.059252225 99759.262
0.56452581 -0.05 0.059513843 99754.73
0.55825355 -0.05 0.059768222 99750.231
0.551981 -0.05 0.0600152 99745.715
0.54570816 -0.05 0.060254707 99741.172
0.53943504 -0.05 0.060486579 99736.677
0.53316162 -0.05 0.060710678 99732.166
0.52688794 -0.05 0.060926932 99727.638
0.52061399 -0.05 0.06113517 99723.128
0.51433977 -0.05 0.06133525 99718.608
0.50806528 -0.05 0.061527003 99714.128
0.50179055 -0.05 0.061710295 99709.575
0.49551557 -0.05 0.061884998 99705.041
0.48924035 -0.05 0.062050917 99700.508
0.4829649 -0.05 0.062207849 99696.022
0.47668923 -0.05 0.062355668 99691.477
0.47041335 -0.05 0.062494238 99686.953
0.46413727 -0.05 0.062623308 99682.437
0.45786099 -0.05 0.062742663 99677.929
0.45158454 -0.05 0.062852142 99673.392
0.44530792 -0.05 0.062951563 99668.875
0.43903115 -0.05 0.063040696 99664.355
0.43275423 -0.05 0.063119306 99659.878
0.42647718 -0.05 0.06318718 99655.384
0.42020003 -0.05 0.063244121 99650.879
0.41392279 -0.05 0.063289879 99646.394
0.40764547 -0.05 0.063324178 99641.943
0.4013681 -0.05 0.063346792 99637.437
0.3950907 -0.05 0.063357439 99633.021
0.38881329 -0.05 0.063355807 99628.634
0.3825359 -0.05 0.063341685 99624.223
0.37625856 -0.05 0.063314831 99619.773
0.36998127 -0.05 0.063274847 99615.467
0.36370409 -0.05 0.063221416 99611.159
0.35742704 -0.05 0.063154295 99606.898
0.35115015 -0.05 0.063073148 99602.627
0.34487348 -0.05 0.062977621 99598.393
0.33859704 -0.05 0.062867328 99594.221
0.33232089 -0.05 0.062741939 99590.059
0.32604506 -0.05 0.062601066 99585.963
0.31976961 -0.05 0.062444286 99582.007
0.31349459 -0.05 0.06227121 99578.265
0.30722006 -0.05 0.062081426 99574.332
0.30094605 -0.05 0.061874501 99569.267
