# wallShearStress  FACE_DATA 448
# x y z  wallShearStress_x wallShearStress_y wallShearStress_z
0.29928876 -0.05 -0.058268753 -7.1654672 -1.3337901e-17 -0.2492588
0.2936547 -0.05 -0.0584581 -7.1576815 -7.678297e-17 -0.22958241
0.28810127 -0.05 -0.058630161 -7.1002639 -9.5767817e-17 -0.20910076
0.28262736 -0.05 -0.058785186 -7.0484579 -4.0060191e-18 -0.18873972
0.27723185 -0.05 -0.058923481 -6.9985902 1.4312004e-16 -0.16859919
0.27191366 -0.05 -0.059045385 -6.9515681 6.8908597e-19 -0.14856031
0.26667171 -0.05 -0.059151212 -6.9070426 1.191365e-17 -0.12869044
0.26150495 -0.05 -0.059241244 -6.86503 6.0840525e-19 -0.10892623
0.25641234 -0.05 -0.059315807 -6.8255081 -5.3024607e-18 -0.089607503
0.25139285 -0.05 -0.059375186 -6.7884987 1.8913967e-19 -0.070732273
0.24644547 -0.05 -0.059419602 -6.7531588 1.6708192e-17 -0.051294472
0.24156919 -0.05 -0.059449369 -6.719861 1.6908012e-17 -0.030289411
0.23676305 -0.05 -0.059464767 -6.6881668 1.2457962e-18 -0.010475985
0.23202607 -0.05 -0.059466092 -6.657558 -1.112996e-18 0.0097471665
0.2273573 -0.05 -0.059453626 -6.6290946 2.222802e-17 0.030418717
0.22275578 -0.05 -0.059427573 -6.6026032 3.8720471e-17 0.049514886
0.2182206 -0.05 -0.059388232 -6.5780804 1.6101798e-17 0.068512331
0.21375084 -0.05 -0.059335861 -6.5558901 9.985401e-18 0.088014869
0.2093456 -0.05 -0.059270624 -6.5351151 3.5469077e-17 0.10805286
0.205004 -0.05 -0.059192818 -6.5162982 -2.9434052e-17 0.12813617
0.20072516 -0.05 -0.05910269 -6.4996066 3.3642151e-17 0.14839765
0.19650821 -0.05 -0.059000504 -6.4851034 -2.8749962e-17 0.16876645
0.19235231 -0.05 -0.058886494 -6.4729825 -7.3633091e-17 0.18950747
0.18825663 -0.05 -0.058760776 -6.462186 -7.6505076e-17 0.21042746
0.18422032 -0.05 -0.058623631 -6.4530226 1.1940322e-16 0.23143796
0.18024259 -0.05 -0.058475282 -6.4458793 -2.2692885e-18 0.25285005
0.17632263 -0.05 -0.058315919 -6.440048 4.7828182e-17 0.27437657
0.17245965 -0.05 -0.058145778 -6.4362439 1.5602049e-16 0.29629998
0.16865287 -0.05 -0.05796505 -6.4339936 -1.0517503e-16 0.31851967
0.16490153 -0.05 -0.057773902 -6.4333519 7.335906e-17 0.3411903
0.16120488 -0.05 -0.05757249 -6.4339337 2.2247211e-16 0.36408241
0.15756216 -0.05 -0.057361067 -6.4366016 1.7464445e-16 0.38741761
0.15397266 -0.05 -0.057139775 -6.4411488 -1.4402539e-16 0.41129064
0.15043565 -0.05 -0.05690878 -6.4472619 -4.9033476e-17 0.43551312
0.14695041 -0.05 -0.05666826 -6.4552765 -3.5099351e-16 0.4603812
0.14351626 -0.05 -0.056418334 -6.4645292 1.3728335e-16 0.48569865
0.14013249 -0.05 -0.056159184 -6.475214 -2.7264953e-16 0.5115778
0.13679844 -0.05 -0.055890952 -6.4873216 -1.0568479e-16 0.53797671
0.13351343 -0.05 -0.05561383 -6.5010708 -9.667082e-17 0.56494162
0.13027682 -0.05 -0.055327953 -6.516579 -5.9350498e-17 0.59275663
0.12708796 -0.05 -0.055033371 -6.532675 -1.865781e-16 0.62100726
0.12394619 -0.05 -0.054730289 -6.5503183 -2.5897382e-16 0.64990678
0.12085091 -0.05 -0.054418852 -6.5700215 -4.5907023e-17 0.67985709
0.1178015 -0.05 -0.054099096 -6.5906793 -3.3834073e-16 0.71057343
0.11479736 -0.05 -0.053771118 -6.6123255 7.5820079e-18 0.742019
0.11183788 -0.05 -0.05343507 -6.635427 1.4775675e-16 0.77438559
0.1089225 -0.05 -0.053091004 -6.659745 1.6465614e-16 0.80765504
0.10605063 -0.05 -0.052739036 -6.685008 -2.0607593e-16 0.84159142
0.1032217 -0.05 -0.052379339 -6.7127569 -2.3646707e-16 0.87697839
0.10043516 -0.05 -0.052011876 -6.7418057 9.3910297e-17 0.91345428
0.097690479 -0.05 -0.051636717 -6.7719379 9.4696863e-18 0.95078275
0.094987108 -0.05 -0.051254025 -6.804284 6.9660519e-16 0.98972698
0.092324542 -0.05 -0.050863735 -6.8370648 -6.9562714e-16 1.0297659
0.089702261 -0.05 -0.050465927 -6.8694541 -6.863311e-18 1.070623
0.087119759 -0.05 -0.050060684 -6.9026969 -4.7712313e-16 1.1128998
0.084576542 -0.05 -0.049648049 -6.9360778 3.7861657e-16 1.1563266
0.082072125 -0.05 -0.04922808 -6.9711746 -2.56885e-16 1.2017743
0.079606056 -0.05 -0.048800687 -7.0066131 -7.6192892e-17 1.248613
0.077177877 -0.05 -0.048365876 -7.0430477 3.8243551e-16 1.2968808
0.074787124 -0.05 -0.047923735 -7.0814545 1.4451104e-16 1.3471124
0.072433355 -0.05 -0.047474296 -7.1225002 5.7925927e-17 1.3999123
0.070116159 -0.05 -0.04701746 -7.1644496 -4.5584034e-16 1.4546164
0.067835124 -0.05 -0.046553199 -7.2063351 -2.6098534e-16 1.5109249
0.06558984 -0.05 -0.04608152 -7.2488366 -6.7440513e-16 1.5693617
0.063379927 -0.05 -0.045602345 -7.2912571 -2.1947009e-16 1.6298692
0.061205013 -0.05 -0.045115599 -7.3334808 -4.2963608e-16 1.692703
0.059064734 -0.05 -0.044621232 -7.3760411 5.9497494e-16 1.7582838
0.056958745 -0.05 -0.044119153 -7.4187853 1.9646749e-16 1.8265375
0.054886696 -0.05 -0.043609335 -7.4610651 3.2120493e-16 1.8977753
0.052848289 -0.05 -0.043091602 -7.5031223 1.3553121e-16 1.9718701
0.050843231 -0.05 -0.042565808 -7.5435952 -8.9090704e-17 2.048028
0.048871215 -0.05 -0.042031898 -7.5851351 -8.1704379e-17 2.1281807
0.046931982 -0.05 -0.041489696 -7.6285078 -2.8160971e-17 2.2131531
0.045025292 -0.05 -0.040939022 -7.6749208 2.1172324e-16 2.3039579
0.043150944 -0.05 -0.040379607 -7.7217497 -4.3175045e-16 2.3989618
0.041308732 -0.05 -0.039811262 -7.7663896 7.8572769e-16 2.4972897
0.039498453 -0.05 -0.039233844 -7.8084751 -4.0628322e-16 2.5996684
0.037719967 -0.05 -0.03864707 -7.8466676 3.1924781e-17 2.7063438
0.035973163 -0.05 -0.038050636 -7.881689 -4.5353089e-16 2.8191954
0.034257954 -0.05 -0.03744423 -7.9163262 -2.5794081e-16 2.940338
0.032574283 -0.05 -0.036827539 -7.9483613 3.398403e-16 3.0679264
0.03092213 -0.05 -0.03620021 -7.974281 2.898166e-16 3.2012212
0.029301539 -0.05 -0.035561808 -7.9963893 -2.9588885e-16 3.3400461
0.027712567 -0.05 -0.034911951 -8.0172385 2.2170901e-16 3.4863574
0.026155349 -0.05 -0.034250149 -8.0413671 1.0077198e-16 3.6445352
0.02463008 -0.05 -0.033575879 -8.0648373 5.2519307e-16 3.8133344
0.023137005 -0.05 -0.032888624 -8.0683157 -1.5038695e-17 3.9865913
0.021676488 -0.05 -0.032187745 -8.0393448 -1.0838473e-16 4.1612065
0.020248919 -0.05 -0.031472658 -7.9607887 2.439405e-16 4.3395928
0.018854848 -0.05 -0.030742621 -7.8286752 3.3167414e-16 4.5293615
0.017494915 -0.05 -0.029996856 -7.6548315 -4.4639551e-16 4.7429938
0.016169848 -0.05 -0.029234596 -7.4720923 8.3127453e-16 4.9915492
0.014880564 -0.05 -0.028454965 -7.2705146 -6.3040172e-16 5.2734683
0.013628161 -0.05 -0.027657069 -7.0707768 7.1451873e-17 5.6138912
0.012413932 -0.05 -0.026839971 -6.8805514 6.3109429e-16 6.0265741
0.011239394 -0.05 -0.026002628 -6.7038639 -2.3199141e-16 6.5085176
0.010106258 -0.05 -0.025143927 -6.5572699 7.699582e-16 7.0339805
0.0090165603 -0.05 -0.024262944 -6.4949383 2.6922058e-16 7.6002715
0.0079727594 -0.05 -0.023358758 -6.4706484 -5.6188614e-17 8.1737397
0.0069775489 -0.05 -0.022430187 -6.3954588 -3.5445149e-16 8.6892227
0.0060339596 -0.05 -0.0214764 -6.2031234 -1.8316814e-17 9.1035264
0.0051457161 -0.05 -0.020497101 -5.8598298 -1.1765584e-16 9.3840973
0.0043166733 -0.05 -0.019491778 -5.3587192 1.3717729e-16 9.4761246
0.0035509223 -0.05 -0.018460466 -4.7399911 6.1937625e-16 9.387204
0.0028532456 -0.05 -0.017404314 -4.0376492 -6.2203018e-17 9.0896894
0.0022282665 -0.05 -0.016324635 -3.2964973 5.4774815e-17 8.583339
0.0016804114 -0.05 -0.01522377 -2.5508827 -1.4286202e-16 7.858437
0.0012137477 -0.05 -0.014105616 -1.8423857 2.6964028e-16 6.9447868
0.00083150959 -0.05 -0.012974459 -1.214329 7.6712568e-17 5.888928
0.00053563716 -0.05 -0.011835539 -0.74289773 4.1913192e-17 4.7490518
0.00032642901 -0.05 -0.010694909 -0.41892179 8.7205178e-17 3.5701573
0.00020260509 -0.05 -0.0095586819 -0.22865466 1.7139516e-17 2.4211733
0.99642652 -0.05 0.026416224 -25.309165 9.786543e-16 -4.3145492
0.99024961 -0.05 0.025297459 -23.559547 -8.8244983e-16 -4.1986958
0.98407144 -0.05 0.02418564 -23.67098 -2.2557627e-16 -4.2294685
0.97789203 -0.05 0.023080742 -24.013692 -5.9355711e-16 -4.2618058
0.97171141 -0.05 0.021982659 -24.235281 7.340079e-16 -4.2762378
0.9655296 -0.05 0.020891233 -24.427718 -6.2517432e-16 -4.2845808
0.95934662 -0.05 0.019806483 -24.576314 -5.6337663e-16 -4.2846447
0.9531625 -0.05 0.018728345 -24.693908 4.3764605e-16 -4.2793325
0.94697724 -0.05 0.017656665 -24.786305 -1.4800235e-15 -4.2693509
0.94079088 -0.05 0.016591361 -24.857743 5.5666144e-16 -4.2558616
0.93460343 -0.05 0.015532425 -24.912352 1.9773429e-16 -4.2391691
0.92841491 -0.05 0.014479801 -24.949406 1.7639011e-15 -4.220133
0.92222531 -0.05 0.013433412 -24.970505 -9.9666382e-16 -4.1982677
0.91603468 -0.05 0.012393221 -24.97159 -2.4182764e-16 -4.1738034
0.90984304 -0.05 0.011359081 -24.955421 -8.4969329e-16 -4.1465276
0.90365039 -0.05 0.010330994 -24.918922 1.2455756e-15 -4.1158618
0.89745674 -0.05 0.009308929 -24.865066 -7.1757225e-16 -4.0825199
0.89126214 -0.05 0.0082927499 -24.794906 -3.5221055e-16 -4.0469009
0.88506656 -0.05 0.0072824439 -24.716968 1.6698578e-15 -4.0098944
0.87887001 -0.05 0.0062780677 -24.631174 2.3346417e-15 -3.971971
0.87267254 -0.05 0.0052794845 -24.541806 -2.8222821e-16 -3.9341833
0.86647414 -0.05 0.0042866269 -24.446735 -1.1225153e-15 -3.895557
0.86027482 -0.05 0.0032995236 -24.348291 1.8861649e-15 -3.8569007
0.8540746 -0.05 0.0023180885 -24.243885 6.0298637e-16 -3.8177999
0.8478735 -0.05 0.0013422596 -24.133204 -1.4272274e-15 -3.7780284
0.84167152 -0.05 0.00037205086 -24.011985 -6.4227571e-16 -3.7369164
0.83546865 -0.05 -0.00059250154 -23.88018 -2.3278473e-15 -3.694669
0.82926494 -0.05 -0.0015515721 -23.736186 -3.7065782e-16 -3.651243
0.82306037 -0.05 -0.0025051207 -23.580896 1.8595111e-15 -3.6056765
0.81685496 -0.05 -0.0034531007 -23.415885 2.0859432e-15 -3.5594289
0.8106487 -0.05 -0.0043955913 -23.246606 1.0946279e-15 -3.5125232
0.80444162 -0.05 -0.0053326018 -23.074778 -6.7642864e-16 -3.465783
0.79823371 -0.05 -0.0062641636 -22.901427 1.7445361e-15 -3.4189156
0.79202498 -0.05 -0.0071902315 -22.725282 5.0923826e-16 -3.3721588
0.78581546 -0.05 -0.0081108917 -22.549602 1.3631595e-15 -3.3258975
0.77960513 -0.05 -0.0090261088 -22.372692 -6.9159563e-16 -3.2795864
0.77339398 -0.05 -0.0099358516 -22.194638 -6.1225254e-17 -3.2337413
0.76718205 -0.05 -0.01084018 -22.012996 -9.0324074e-16 -3.1877946
0.76096933 -0.05 -0.01173908 -21.825794 -5.5187357e-16 -3.141473
0.75475583 -0.05 -0.012632542 -21.629347 3.2864749e-16 -3.0942096
0.74854154 -0.05 -0.013520537 -21.420016 -4.8623765e-16 -3.0454414
0.74232647 -0.05 -0.01440305 -21.195425 5.6139183e-16 -2.9948483
0.73611063 -0.05 -0.015280067 -20.959471 1.8987444e-16 -2.9427706
0.729894 -0.05 -0.01615155 -20.717756 8.3014801e-16 -2.890091
0.72367661 -0.05 -0.017017534 -20.477711 1.8017631e-16 -2.8380453
0.71745847 -0.05 -0.017878049 -20.239793 -1.7418268e-15 -2.7865015
0.71123954 -0.05 -0.018732919 -20.003684 -1.191596e-15 -2.7353542
0.70501983 -0.05 -0.019582196 -19.77004 1.2031834e-15 -2.685368
0.69879937 -0.05 -0.020425845 -19.538514 -7.2525184e-17 -2.6355758
0.69257814 -0.05 -0.021263772 -19.308066 -4.1821419e-16 -2.5867982
0.68635614 -0.05 -0.022096036 -19.077452 -4.1827512e-16 -2.538277
0.68013338 -0.05 -0.022922536 -18.841888 -4.675863e-16 -2.4896489
0.67390986 -0.05 -0.023743284 -18.596224 1.1284581e-15 -2.4401752
0.66768555 -0.05 -0.024558163 -18.333528 5.7494383e-16 -2.3886427
0.66146048 -0.05 -0.025367072 -18.053287 -5.77326e-16 -2.3352924
0.65523464 -0.05 -0.026170098 -17.764233 -1.3326853e-15 -2.2810269
0.64900804 -0.05 -0.026967152 -17.474971 3.2690622e-16 -2.2267542
0.64278065 -0.05 -0.027758069 -17.185712 -5.9987912e-16 -2.1730172
0.63655248 -0.05 -0.028542816 -16.897634 -3.7143107e-16 -2.1200548
0.63032354 -0.05 -0.029321396 -16.611113 -3.09168e-16 -2.0680162
0.62409382 -0.05 -0.030093672 -16.326351 -1.4266548e-15 -2.0162852
0.61786331 -0.05 -0.030859558 -16.043752 -4.7618808e-16 -1.9653548
0.61163202 -0.05 -0.031619051 -15.764928 3.9270693e-16 -1.9149928
0.60539992 -0.05 -0.032372007 -15.4905 7.0916614e-16 -1.8651568
0.59916704 -0.05 -0.033118354 -15.219571 -1.3355014e-15 -1.8160774
0.59293335 -0.05 -0.033858008 -14.950564 -5.0901289e-16 -1.7674541
0.58669887 -0.05 -0.034590879 -14.68486 -4.297725e-16 -1.7196877
0.58046358 -0.05 -0.03531685 -14.421916 4.5413079e-16 -1.6724341
0.57422747 -0.05 -0.036035779 -14.16117 -2.1350791e-15 -1.6257871
0.56799055 -0.05 -0.036747629 -13.902911 3.4672778e-16 -1.5794506
0.56175281 -0.05 -0.037452281 -13.647143 1.4597652e-15 -1.5336581
0.55551425 -0.05 -0.038149573 -13.392954 -2.9751478e-17 -1.4885534
0.54927486 -0.05 -0.038839433 -13.140514 -1.0891916e-15 -1.4441721
0.54303464 -0.05 -0.039521699 -12.889672 -3.2538228e-16 -1.4004138
0.53679357 -0.05 -0.040196232 -12.643115 -3.8995647e-16 -1.3577618
0.53055167 -0.05 -0.040862961 -12.402639 -1.0746014e-15 -1.3161015
0.52430892 -0.05 -0.041521715 -12.167946 2.0898136e-15 -1.2753601
0.51806532 -0.05 -0.04217235 -11.939903 2.8582819e-17 -1.2357048
0.51182086 -0.05 -0.042814698 -11.719417 -6.8711572e-16 -1.1970174
0.50557554 -0.05 -0.043448625 -11.506602 1.3651606e-16 -1.1594138
0.49932937 -0.05 -0.044074003 -11.302204 7.0550753e-16 -1.1228754
0.49308231 -0.05 -0.044690637 -11.106366 1.9350684e-16 -1.0874539
0.48683438 -0.05 -0.045298324 -10.919075 -2.9515156e-16 -1.0531653
0.48058558 -0.05 -0.045896938 -10.739306 3.6308484e-17 -1.0200102
0.4743359 -0.05 -0.046486341 -10.566007 -1.9809864e-16 -0.98762903
0.46808533 -0.05 -0.047066283 -10.397762 -3.5390278e-16 -0.95587967
0.46183388 -0.05 -0.04763655 -10.234126 -3.2478025e-16 -0.92477792
0.45558154 -0.05 -0.04819698 -10.074859 1.4466219e-16 -0.894296
0.44932831 -0.05 -0.048747388 -9.9199761 -4.0111479e-16 -0.86435276
0.44307418 -0.05 -0.049287548 -9.7691405 -5.3239179e-16 -0.83489985
0.43681916 -0.05 -0.04981722 -9.6223022 -2.3947908e-16 -0.80593465
0.43056324 -0.05 -0.050336195 -9.4791313 -5.5898748e-17 -0.77746964
0.42430642 -0.05 -0.050844272 -9.339804 -7.6085608e-17 -0.74946049
0.41804871 -0.05 -0.051341202 -9.2040119 5.6574198e-16 -0.72182433
0.4117901 -0.05 -0.051826707 -9.0716965 -4.5766718e-16 -0.69458305
0.40553061 -0.05 -0.052300562 -8.9428018 -1.5837591e-16 -0.66775006
0.39927021 -0.05 -0.052762481 -8.817262 -1.2845991e-17 -0.64118103
0.39300893 -0.05 -0.053212156 -8.6944783 -7.59205e-16 -0.61497893
0.38674677 -0.05 -0.053649371 -8.575011 -2.3511039e-16 -0.58917588
0.38048374 -0.05 -0.054073884 -8.4588888 1.3152236e-16 -0.56363572
0.37421982 -0.05 -0.054485297 -8.3457444 -2.1060361e-16 -0.53823751
0.36795504 -0.05 -0.05488329 -8.2351691 2.4682918e-16 -0.51322039
0.36168941 -0.05 -0.055267619 -8.1279045 4.9985818e-16 -0.4884504
0.35542293 -0.05 -0.055637946 -8.0236552 7.0736444e-16 -0.46389747
0.34915563 -0.05 -0.055993916 -7.9223224 -2.8957925e-16 -0.43949582
0.3428875 -0.05 -0.05633514 -7.823782 3.4347333e-16 -0.41526601
0.33661858 -0.05 -0.056661288 -7.7283546 -3.7527911e-17 -0.391259
0.33034886 -0.05 -0.056971967 -7.6357869 -1.481052e-16 -0.36730498
0.32407838 -0.05 -0.057266753 -7.5457014 1.0404709e-16 -0.34352934
0.31780716 -0.05 -0.057545256 -7.4592395 -9.0969977e-18 -0.31993795
0.31153521 -0.05 -0.057807058 -7.3772075 1.740242e-16 -0.29652477
0.30526257 -0.05 -0.058051725 -7.2416067 -4.4853642e-17 -0.27005675
0.29497209 -0.05 0.061661491 -7.0140904 -1.1502776e-16 -0.27183121
0.28933901 -0.05 0.061445299 -7.1120399 4.0649916e-17 -0.29420288
0.28378758 -0.05 0.061217662 -7.2860479 -3.7669759e-16 -0.32119608
0.27831668 -0.05 0.06097875 -7.4522989 2.5817587e-17 -0.34854225
0.2729252 -0.05 0.060728789 -7.6193554 2.014686e-16 -0.37695363
0.26761201 -0.05 0.060468037 -7.7860479 -9.6799928e-17 -0.4065616
0.26237601 -0.05 0.060196729 -7.9532235 -1.1448466e-16 -0.43727506
0.25721615 -0.05 0.059915073 -8.1205957 -9.8162452e-17 -0.46922256
0.25213136 -0.05 0.059623321 -8.2876673 -1.7650725e-16 -0.50217314
0.24712058 -0.05 0.05932168 -8.454258 1.117595e-16 -0.53646874
0.24218281 -0.05 0.059010298 -8.619468 -2.9170768e-17 -0.57179258
0.23731701 -0.05 0.058689419 -8.7838509 -1.7910205e-16 -0.60829851
0.2325222 -0.05 0.058359248 -8.9473724 5.5096737e-17 -0.64591006
0.22779738 -0.05 0.058020015 -9.1092881 6.6406811e-17 -0.68467427
0.22314158 -0.05 0.057671928 -9.2708043 -5.6618601e-17 -0.72476957
0.21855385 -0.05 0.057315126 -9.4312397 -4.9808103e-17 -0.76612068
0.21403323 -0.05 0.056949839 -9.590433 -3.6185283e-16 -0.80852094
0.2095788 -0.05 0.056576258 -9.7480349 2.4191979e-16 -0.85231206
0.20518966 -0.05 0.056194484 -9.9030785 -5.8465753e-16 -0.89715097
0.20086489 -0.05 0.05580475 -10.056183 -4.1542046e-16 -0.94306498
0.19660359 -0.05 0.055407236 -10.206475 5.3248776e-16 -0.99011702
0.19240491 -0.05 0.055002146 -10.354654 5.5627926e-16 -1.0382496
0.18826796 -0.05 0.05458965 -10.502088 -8.3867694e-17 -1.0879329
0.1841919 -0.05 0.054169805 -10.647453 1.2485028e-16 -1.138825
0.1801759 -0.05 0.053742833 -10.791261 -1.9466237e-16 -1.1907407
0.17621913 -0.05 0.053308897 -10.933252 5.410709e-16 -1.2440825
0.17232077 -0.05 0.052868128 -11.072671 5.4115729e-17 -1.2983952
0.16848002 -0.05 0.052420706 -11.210171 -3.0783792e-16 -1.3541034
0.16469609 -0.05 0.051966766 -11.345464 2.0468936e-16 -1.4110067
0.16096819 -0.05 0.051506417 -11.478513 2.8975237e-16 -1.4693121
0.15729559 -0.05 0.051039763 -11.609046 -9.9402856e-17 -1.5286471
0.1536775 -0.05 0.050567001 -11.737165 1.3563612e-16 -1.5891986
0.15011319 -0.05 0.050088221 -11.861253 -8.4847699e-16 -1.6508955
0.14660194 -0.05 0.049603537 -11.981708 6.2096519e-16 -1.713536
0.14314302 -0.05 0.049113076 -12.098476 -2.9052602e-17 -1.7774706
0.13973572 -0.05 0.048616903 -12.21013 1.1509212e-16 -1.8422323
0.13637934 -0.05 0.048115155 -12.316326 -2.910892e-16 -1.907747
0.1330732 -0.05 0.047607922 -12.416699 -2.3178166e-16 -1.9740026
0.12981662 -0.05 0.047095349 -12.51155 -4.7641769e-17 -2.04095
0.12660893 -0.05 0.046577522 -12.600373 -4.2121114e-16 -2.1089
0.12344949 -0.05 0.046054444 -12.681685 -1.2957068e-16 -2.1769804
0.12033765 -0.05 0.045526276 -12.757189 -6.219042e-16 -2.2454961
0.11727277 -0.05 0.044993116 -12.829024 2.2982558e-17 -2.3157523
0.11425423 -0.05 0.044454956 -12.89991 3.1875626e-16 -2.3876002
0.11128144 -0.05 0.04391185 -12.967932 -3.2639423e-16 -2.4602505
0.10835378 -0.05 0.043363905 -13.028504 3.3455665e-18 -2.5332113
0.10547068 -0.05 0.042811134 -13.079083 -6.7504252e-16 -2.6063855
0.10263155 -0.05 0.042253609 -13.119032 5.7984295e-18 -2.6793977
0.099835798 -0.05 0.041691463 -13.150675 3.9530686e-16 -2.7538397
0.09708289 -0.05 0.041124617 -13.174603 7.201021e-16 -2.8295263
0.094372283 -0.05 0.040553106 -13.197606 -1.5719131e-17 -2.9071954
0.091703421 -0.05 0.039977052 -13.22662 -1.0176854e-15 -2.9891642
0.089075803 -0.05 0.039396351 -13.256535 -1.0391818e-17 -3.0743223
0.086488907 -0.05 0.038811048 -13.291802 4.9001341e-16 -3.1632627
0.083942222 -0.05 0.03822119 -13.339637 2.7504375e-16 -3.2577708
0.081435252 -0.05 0.037626783 -13.391423 9.6533289e-16 -3.3557847
0.078967508 -0.05 0.037027851 -13.447853 5.2576851e-16 -3.458984
0.076538546 -0.05 0.036424271 -13.506951 -4.5866384e-16 -3.5663616
0.074147911 -0.05 0.035816017 -13.56902 -1.2229038e-15 -3.6778424
0.071795131 -0.05 0.035203141 -13.63543 -7.0900706e-16 -3.7942845
0.069479763 -0.05 0.034585645 -13.705809 -3.6638729e-16 -3.9162892
0.067201408 -0.05 0.0339634 -13.776627 2.5096268e-16 -4.0425943
0.064959652 -0.05 0.03333635 -13.845488 3.9591278e-16 -4.1727754
0.062754089 -0.05 0.032704472 -13.911764 5.274499e-16 -4.3074723
0.060584344 -0.05 0.032067659 -13.97312 3.5330526e-17 -4.4460953
0.058450052 -0.05 0.031425812 -14.027148 8.007577e-16 -4.5880671
0.056350852 -0.05 0.030778853 -14.072324 4.4830122e-18 -4.7333357
0.054286409 -0.05 0.030126666 -14.107561 -6.3780495e-16 -4.8816021
0.052256374 -0.05 0.029469203 -14.134967 -4.2906576e-16 -5.0338747
0.050260464 -0.05 0.028806261 -14.153115 -7.9369331e-16 -5.1895399
0.048298395 -0.05 0.028137679 -14.160327 1.4951603e-16 -5.3474706
0.046369866 -0.05 0.027463377 -14.157789 -2.8649716e-18 -5.5090344
0.044474632 -0.05 0.02678316 -14.143886 4.1895057e-16 -5.6738175
0.042612466 -0.05 0.026096833 -14.117547 -5.4838656e-16 -5.8418331
0.040783185 -0.05 0.025404113 -14.07658 -3.0340268e-16 -6.0115975
0.0389866 -0.05 0.024704797 -14.020698 1.8066717e-16 -6.1828711
0.037222518 -0.05 0.023998727 -13.949966 -4.9940665e-16 -6.3565445
0.035490819 -0.05 0.02328561 -13.862894 -7.3544945e-16 -6.5319118
0.033791414 -0.05 0.022565137 -13.759523 5.604976e-16 -6.7106218
0.032124241 -0.05 0.021836989 -13.634994 -5.5113954e-16 -6.8912865
0.030489261 -0.05 0.021100849 -13.488324 2.7956897e-16 -7.0660205
0.028886485 -0.05 0.020356364 -13.323619 -3.7138971e-17 -7.2373923
0.027315984 -0.05 0.019603105 -13.13601 1.0872095e-16 -7.4113616
0.025777843 -0.05 0.018840693 -12.923381 -9.3197702e-16 -7.5806794
0.024272233 -0.05 0.018068651 -12.685585 -5.522271e-16 -7.7453567
0.022799387 -0.05 0.01728647 -12.420483 -8.3343105e-16 -7.9023851
0.021359585 -0.05 0.016493652 -12.127662 7.7567194e-16 -8.0502832
0.019953235 -0.05 0.015689586 -11.80608 -7.5759113e-16 -8.185759
0.01858077 -0.05 0.014873717 -11.456268 1.0555542e-17 -8.3078191
0.017242791 -0.05 0.014045345 -11.07606 -1.3944431e-16 -8.4129259
0.015939992 -0.05 0.013203739 -10.660614 7.0739006e-18 -8.4987613
0.014673155 -0.05 0.012348189 -10.206599 -7.8808459e-16 -8.5579623
0.013443258 -0.05 0.011477885 -9.7126209 4.8759673e-16 -8.5842801
0.012251459 -0.05 0.010592015 -9.177632 6.3350044e-17 -8.5716877
0.011099115 -0.05 0.0096897369 -8.6030878 -5.7473961e-17 -8.5182116
0.0099878154 -0.05 0.0087701187 -7.9913811 1.6194892e-16 -8.4138948
0.0089193467 -0.05 0.0078321751 -7.3430013 9.9341381e-16 -8.2528392
0.007895805 -0.05 0.0068751307 -6.6604145 1.2298365e-17 -8.0251746
0.0069197098 -0.05 0.0058982421 -5.9494528 6.1960777e-16 -7.7194763
0.0059938322 -0.05 0.0049005259 -5.2188415 -4.6088588e-16 -7.3288757
0.0051212553 -0.05 0.0038813689 -4.4795107 -1.9866838e-16 -6.8478996
0.0043057151 -0.05 0.0028407452 -3.7453106 -7.1088294e-16 -6.2720836
0.0035510932 -0.05 0.0017784216 -3.0325157 -2.0198382e-17 -5.599389
0.002861468 -0.05 0.00069472564 -2.3580361 1.6549024e-16 -4.8335534
0.0022415264 -0.05 -0.00040885075 -1.7254227 1.8718932e-16 -3.9837337
0.001695786 -0.05 -0.0015306679 -1.1734209 4.7231438e-17 -3.0700084
0.0012284931 -0.05 -0.0026680708 -0.72769833 2.5275947e-16 -2.1133206
0.00084342447 -0.05 -0.0038168819 -0.42050884 2.7279837e-16 -1.1978554
0.00054349773 -0.05 -0.0049725918 -0.23951368 -3.2746588e-16 -0.53757866
0.00033027125 -0.05 -0.006129835 -0.15469765 -8.9581852e-17 0.050659125
0.00020360785 -0.05 -0.0072825547 -0.11064181 -2.6176129e-17 0.65978781
0.00016179116 -0.05 -0.0084247438 -0.14289765 1.3358337e-18 1.3861606
0.99639417 -0.05 0.027314995 0.11021507 -7.4797849e-19 0.082761927
0.99015281 -0.05 0.027986788 -0.056745613 5.7135511e-16 0.006537906
0.9839107 -0.05 0.028651563 0.00068046887 -3.9494806e-16 0.00095009881
0.97766784 -0.05 0.029309346 -0.029371282 3.1223586e-16 0.0041770459
0.97142426 -0.05 0.029960243 -0.02860065 4.3785176e-16 0.0039078956
0.96517999 -0.05 0.030604416 -0.042277247 -5.3645147e-16 0.0053109664
0.95893503 -0.05 0.031241846 -0.052549774 -2.6410069e-17 0.0062032298
0.95268939 -0.05 0.031872599 -0.065327568 4.0475579e-16 0.0073861578
0.94644309 -0.05 0.032496828 -0.078082922 7.7241111e-16 0.0085180393
0.94019615 -0.05 0.03311462 -0.091494634 -2.3192649e-16 0.0096994008
0.93394858 -0.05 0.033725981 -0.10525227 -1.1287738e-16 0.010877094
0.9277004 -0.05 0.03433097 -0.11909259 -4.4765305e-16 0.012042921
0.9214516 -0.05 0.034929664 -0.13317603 2.7212397e-16 0.013221076
0.91520221 -0.05 0.035522099 -0.14738837 1.5507859e-16 0.014383074
0.90895224 -0.05 0.036108426 -0.16191605 3.8967111e-16 0.01554273
0.9027017 -0.05 0.036688644 -0.17652334 -7.5566046e-17 0.01667399
0.8964506 -0.05 0.037262785 -0.19120597 6.3282141e-18 0.017807505
0.89019896 -0.05 0.037830985 -0.20616746 -5.2744479e-16 0.018942687
0.88394678 -0.05 0.038393258 -0.2214449 -3.9307306e-16 0.020114271
0.87769406 -0.05 0.038949548 -0.23716956 3.5322939e-17 0.021283488
0.87144083 -0.05 0.039499991 -0.25385342 9.4541305e-18 0.022456797
0.8651871 -0.05 0.040044658 -0.2709036 3.0818093e-17 0.023651959
0.85893286 -0.05 0.040583519 -0.28809487 -1.3448451e-17 0.024830275
0.85267812 -0.05 0.041116662 -0.30553556 4.683073e-16 0.026000407
0.84642292 -0.05 0.04164415 -0.32324368 -1.0902823e-16 0.02716464
0.84016723 -0.05 0.042165969 -0.34128821 2.6937314e-17 0.028323458
0.83391107 -0.05 0.042682083 -0.35948143 -2.7199327e-16 0.029469466
0.82765445 -0.05 0.043192668 -0.3780764 -8.9420576e-17 0.030614972
0.82139739 -0.05 0.043697684 -0.39705969 1.8085783e-16 0.031756543
0.81513988 -0.05 0.044197085 -0.41628672 2.947854e-17 0.032888091
0.80888193 -0.05 0.04469095 -0.43593371 -4.987145e-16 0.034016092
0.80262353 -0.05 0.04517929 -0.45592769 -1.6666807e-16 0.035139417
0.79636472 -0.05 0.045662136 -0.47638258 6.7433439e-17 0.036260473
0.79010548 -0.05 0.046139443 -0.49717389 -2.4149967e-16 0.037377298
0.78384584 -0.05 0.0466113 -0.5184589 -1.2217317e-17 0.038491556
0.77758578 -0.05 0.047077669 -0.54029486 -3.588408e-17 0.039604872
0.77132531 -0.05 0.04753852 -0.56250792 2.024539e-16 0.040712775
0.76506443 -0.05 0.047993913 -0.58531854 3.299573e-18 0.04182455
0.75880316 -0.05 0.048443837 -0.60862643 -1.3225484e-16 0.042927629
0.7525415 -0.05 0.048888278 -0.63256486 2.276512e-16 0.044034391
0.74627945 -0.05 0.049327212 -0.65707276 -4.280683e-18 0.045133837
0.74001702 -0.05 0.049760621 -0.68222569 4.3573141e-16 0.04623231
0.73375421 -0.05 0.050188492 -0.70801737 1.5038278e-16 0.047324543
0.72749102 -0.05 0.050610789 -0.73443992 -3.4665345e-17 0.048418791
0.72122746 -0.05 0.051027545 -0.76153342 1.2794639e-16 0.049514595
0.71496353 -0.05 0.051438791 -0.78958948 1.4038195e-16 0.050610367
0.70869924 -0.05 0.051844352 -0.81836999 -7.0228154e-18 0.051691743
0.70243458 -0.05 0.052244278 -0.84795054 4.1321254e-16 0.052785131
0.69616955 -0.05 0.052638536 -0.87851022 -6.4472994e-16 0.053855096
0.68990418 -0.05 0.053027032 -0.90967976 -2.4088292e-16 0.054923561
0.68363845 -0.05 0.053409824 -0.9419166 -6.589312e-16 0.055980046
0.67737238 -0.05 0.053786812 -0.97501624 1.5136128e-16 0.057028181
0.67110594 -0.05 0.054158008 -1.0091872 -1.4892395e-16 0.058066525
0.66483917 -0.05 0.054523295 -1.0444132 3.0115651e-17 0.05907622
0.65857206 -0.05 0.054882572 -1.0804326 -1.2669555e-16 0.060074512
0.6523046 -0.05 0.055235924 -1.1179066 -2.5975923e-17 0.061082858
0.6460368 -0.05 0.055583266 -1.1570355 4.8243606e-16 0.062084997
0.63976866 -0.05 0.055924432 -1.19816 2.2779884e-16 0.063158874
0.6335002 -0.05 0.056259386 -1.2423779 -2.3882295e-16 0.064381812
0.6272314 -0.05 0.056588134 -1.2908426 1.0034001e-16 0.065730402
0.62096227 -0.05 0.056910538 -1.3425688 3.2312598e-16 0.06702856
0.61469282 -0.05 0.057226511 -1.395775 8.3206586e-17 0.068226679
0.60842305 -0.05 0.057536053 -1.4501946 -1.3036127e-16 0.069320776
0.60215295 -0.05 0.057839017 -1.5056823 1.3388792e-16 0.070327754
0.59588253 -0.05 0.058135332 -1.562303 -5.9741876e-17 0.071254601
0.5896118 -0.05 0.058424913 -1.6203737 1.0618225e-16 0.072069058
0.58334076 -0.05 0.058707671 -1.6798272 1.7614007e-16 0.072641855
0.57706942 -0.05 0.05898349 -1.7408646 3.2592966e-16 0.072954939
0.57079776 -0.05 0.059252225 -1.8026835 -2.4461403e-16 0.073333475
0.56452581 -0.05 0.059513843 -1.8663757 -2.0467909e-16 0.073795829
0.55825355 -0.05 0.059768222 -1.9319085 2.918244e-17 0.074127024
0.551981 -0.05 0.0600152 -1.9992822 2.6411672e-16 0.074346577
0.54570816 -0.05 0.060254707 -2.0686953 -4.1207876e-17 0.074437239
0.53943504 -0.05 0.060486579 -2.140156 -9.1233629e-18 0.074368622
0.53316162 -0.05 0.060710678 -2.2134018 2.9406831e-17 0.074170439
0.52688794 -0.05 0.060926932 -2.2889567 1.6612056e-16 0.0738071
0.52061399 -0.05 0.06113517 -2.366591 -2.1589594e-16 0.07325224
0.51433977 -0.05 0.06133525 -2.4463672 1.0950967e-16 0.072512505
0.50806528 -0.05 0.061527003 -2.5282686 -1.160484e-16 0.071549121
0.50179055 -0.05 0.061710295 -2.612529 -1.2766736e-16 0.070396384
0.49551557 -0.05 0.061884998 -2.6993226 1.3624105e-16 0.068982812
0.48924035 -0.05 0.062050917 -2.7884385 -1.1716328e-16 0.067309921
0.4829649 -0.05 0.062207849 -2.8797783 4.895274e-17 0.065349404
0.47668923 -0.05 0.062355668 -2.973617 -1.6126395e-16 0.063139259
0.47041335 -0.05 0.062494238 -3.0701412 5.4977714e-17 0.060584041
0.46413727 -0.05 0.062623308 -3.1691485 3.195593e-17 0.057672096
0.45786099 -0.05 0.062742663 -3.2706943 -8.2778248e-17 0.054401539
0.45158454 -0.05 0.062852142 -3.375041 -5.190783e-17 0.05077786
0.44530792 -0.05 0.062951563 -3.4820645 -1.4605429e-16 0.046728254
0.43903115 -0.05 0.063040696 -3.5918292 -7.7761539e-17 0.042228118
0.43275423 -0.05 0.063119306 -3.7042633 1.7132923e-17 0.037256266
0.42647718 -0.05 0.06318718 -3.8194554 6.6630216e-18 0.031818262
0.42020003 -0.05 0.063244121 -3.937607 -3.3968603e-17 0.025900973
0.41392279 -0.05 0.063289879 -4.058795 2.7417668e-17 0.01964731
0.40764547 -0.05 0.063324178 -4.1827883 -6.339126e-18 0.012214489
0.4013681 -0.05 0.063346792 -4.3099495 1.8366437e-17 0.0044213976
0.3950907 -0.05 0.063357439 -4.4400123 3.9240171e-19 -0.0041358139
0.38881329 -0.05 0.063355807 -4.5726403 -1.2432452e-18 -0.013550316
0.3825359 -0.05 0.063341685 -4.708409 -8.9684822e-18 -0.023469985
0.37625856 -0.05 0.063314831 -4.8479089 -1.9048998e-17 -0.033943744
0.36998127 -0.05 0.063274847 -4.9904198 3.3736367e-17 -0.045550768
0.36370409 -0.05 0.063221416 -5.1355005 -3.5408733e-17 -0.057998537
0.35742704 -0.05 0.063154295 -5.2838989 4.5731003e-17 -0.071413351
0.35115015 -0.05 0.063073148 -5.4356232 5.4089344e-17 -0.085825752
0.34487348 -0.05 0.062977621 -5.5907092 -4.9386593e-17 -0.10135278
0.33859704 -0.05 0.062867328 -5.7488981 -5.4495675e-17 -0.11798565
0.33232089 -0.05 0.062741939 -5.9099697 2.7586512e-17 -0.13574621
0.32604506 -0.05 0.062601066 -6.0740678 4.326985e-17 -0.15481632
0.31976961 -0.05 0.062444286 -6.2407341 -2.0202991e-16 -0.17516242
0.31349459 -0.05 0.06227121 -6.4093 -1.3312234e-17 -0.19695885
0.30722006 -0.05 0.062081426 -6.5837817 -5.8458396e-17 -0.22063417
0.30094605 -0.05 0.061874501 -6.8193904 -1.590417e-16 -0.24741888
