# yPlus  FACE_DATA 448
# x y z  yPlus
0.29928876 -0.05 -0.058268753 22.911586
0.2936547 -0.05 -0.0584581 22.88136
0.28810127 -0.05 -0.058630161 22.682776
0.28262736 -0.05 -0.058785186 22.494786
0.27723185 -0.05 -0.058923481 22.313222
0.27191366 -0.05 -0.059045385 22.139069
0.26667171 -0.05 -0.059151212 21.972005
0.26150495 -0.05 -0.059241244 21.811691
0.25641234 -0.05 -0.059315807 21.658247
0.25139285 -0.05 -0.059375186 21.511534
0.24644547 -0.05 -0.059419602 21.37053
0.24156919 -0.05 -0.059449369 21.235072
0.23676305 -0.05 -0.059464767 21.104665
0.23202607 -0.05 -0.059466092 20.978422
0.2273573 -0.05 -0.059453626 20.858089
0.22275578 -0.05 -0.059427573 20.742816
0.2182206 -0.05 -0.059388232 20.632931
0.21375084 -0.05 -0.059335861 20.529132
0.2093456 -0.05 -0.059270624 20.429774
0.205004 -0.05 -0.059192818 20.335511
0.20072516 -0.05 -0.05910269 20.246663
0.19650821 -0.05 -0.059000504 20.163118
0.19235231 -0.05 -0.058886494 20.085255
0.18825663 -0.05 -0.058760776 20.011367
0.18422032 -0.05 -0.058623631 19.941678
0.18024259 -0.05 -0.058475282 19.877006
0.17632263 -0.05 -0.058315919 19.815843
0.17245965 -0.05 -0.058145778 19.7596
0.16865287 -0.05 -0.05796505 19.707135
0.16490153 -0.05 -0.057773902 19.658886
0.16120488 -0.05 -0.05757249 19.613869
0.15756216 -0.05 -0.057361067 19.573263
0.15397266 -0.05 -0.057139775 19.537213
0.15043565 -0.05 -0.05690878 19.504613
0.14695041 -0.05 -0.05666826 19.476341
0.14351626 -0.05 -0.056418334 19.450976
0.14013249 -0.05 -0.056159184 19.428889
0.13679844 -0.05 -0.055890952 19.410206
0.13351343 -0.05 -0.05561383 19.394718
0.13027682 -0.05 -0.055327953 19.383114
0.12708796 -0.05 -0.055033371 19.373496
0.12394619 -0.05 -0.054730289 19.366637
0.12085091 -0.05 -0.054418852 19.363952
0.1178015 -0.05 -0.054099096 19.363538
0.11479736 -0.05 -0.053771118 19.36543
0.11183788 -0.05 -0.05343507 19.369951
0.1089225 -0.05 -0.053091004 19.377566
0.10605063 -0.05 -0.052739036 19.386441
0.1032217 -0.05 -0.052379339 19.399629
0.10043516 -0.05 -0.052011876 19.415963
0.097690479 -0.05 -0.051636717 19.43375
0.094987108 -0.05 -0.051254025 19.455313
0.092324542 -0.05 -0.050863735 19.478832
0.089702261 -0.05 -0.050465927 19.501232
0.087119759 -0.05 -0.050060684 19.526187
0.084576542 -0.05 -0.049648049 19.550955
0.082072125 -0.05 -0.04922808 19.579462
0.079606056 -0.05 -0.048800687 19.609149
0.077177877 -0.05 -0.048365876 19.640569
0.074787124 -0.05 -0.047923735 19.674643
0.072433355 -0.05 -0.047474296 19.713368
0.070116159 -0.05 -0.04701746 19.754475
0.067835124 -0.05 -0.046553199 19.795603
0.06558984 -0.05 -0.04608152 19.838424
0.063379927 -0.05 -0.045602345 19.882286
0.061205013 -0.05 -0.045115599 19.926798
0.059064734 -0.05 -0.044621232 19.972824
0.056958745 -0.05 -0.044119153 20.020562
0.054886696 -0.05 -0.043609335 20.06828
0.052848289 -0.05 -0.043091602 20.119321
0.050843231 -0.05 -0.042565808 20.1682
0.048871215 -0.05 -0.042031898 20.221451
0.046931982 -0.05 -0.041489696 20.279351
0.045025292 -0.05 -0.040939022 20.345228
0.043150944 -0.05 -0.040379607 20.415444
0.041308732 -0.05 -0.039811262 20.485478
0.039498453 -0.05 -0.039233844 20.555944
0.037719967 -0.05 -0.03864707 20.627181
0.035973163 -0.05 -0.038050636 20.700012
0.034257954 -0.05 -0.03744423 20.780366
0.032574283 -0.05 -0.036827539 20.864166
0.03092213 -0.05 -0.03620021 20.949776
0.029301539 -0.05 -0.035561808 21.039698
0.027712567 -0.05 -0.034911951 21.13758
0.026155349 -0.05 -0.034250149 21.253896
0.02463008 -0.05 -0.033575879 21.383772
0.023137005 -0.05 -0.032888624 21.50491
0.021676488 -0.05 -0.032187745 21.60556
0.020248919 -0.05 -0.031472658 21.668284
0.018854848 -0.05 -0.030742621 21.701149
0.017494915 -0.05 -0.029996856 21.721902
0.016169848 -0.05 -0.029234596 21.781527
0.014880564 -0.05 -0.028454965 21.870188
0.013628161 -0.05 -0.027657069 22.036761
0.012413932 -0.05 -0.026839971 22.303876
0.011239394 -0.05 -0.026002628 22.684803
0.010106258 -0.05 -0.025143927 23.175756
0.0090165603 -0.05 -0.024262944 23.825483
0.0079727594 -0.05 -0.023358758 24.564049
0.0069775489 -0.05 -0.022430187 25.266487
0.0060339596 -0.05 -0.0214764 25.835932
0.0051457161 -0.05 -0.020497101 26.227054
0.0043166733 -0.05 -0.019491778 26.368083
0.0035509223 -0.05 -0.018460466 26.273298
0.0028532456 -0.05 -0.017404314 25.903207
0.0022282665 -0.05 -0.016324635 25.238318
0.0016804114 -0.05 -0.01522377 24.216687
0.0012137477 -0.05 -0.014105616 22.822991
0.00083150959 -0.05 -0.012974459 21.055137
0.00053563716 -0.05 -0.011835539 18.918592
0.00032642901 -0.05 -0.010694909 16.385972
0.00020260509 -0.05 -0.0095586819 13.451348
0.99642652 -0.05 0.026416224 50.919146
0.99024961 -0.05 0.025297459 42.027246
0.98407144 -0.05 0.02418564 42.098059
0.97789203 -0.05 0.023080742 42.393591
0.97171141 -0.05 0.021982659 42.580923
0.9655296 -0.05 0.020891233 42.744335
0.95934662 -0.05 0.019806483 42.86919
0.9531625 -0.05 0.018728345 42.966475
0.94697724 -0.05 0.017656665 43.042433
0.94079088 -0.05 0.016591361 43.099997
0.93460343 -0.05 0.015532425 43.143808
0.92841491 -0.05 0.014479801 43.172123
0.92222531 -0.05 0.013433412 43.188159
0.91603468 -0.05 0.012393221 43.18594
0.90984304 -0.05 0.011359081 43.169286
0.90365039 -0.05 0.010330994 43.135163
0.89745674 -0.05 0.009308929 43.086792
0.89126214 -0.05 0.0082927499 43.022597
0.88506656 -0.05 0.0072824439 42.952847
0.87887001 -0.05 0.0062780677 42.875897
0.87267254 -0.05 0.0052794845 42.796347
0.86647414 -0.05 0.0042866269 42.71101
0.86027482 -0.05 0.0032995236 42.623226
0.8540746 -0.05 0.0023180885 42.530025
0.8478735 -0.05 0.0013422596 42.431747
0.84167152 -0.05 0.00037205086 42.323198
0.83546865 -0.05 -0.00059250154 42.205555
0.82926494 -0.05 -0.0015515721 42.076254
0.82306037 -0.05 -0.0025051207 41.937427
0.81685496 -0.05 -0.0034531007 41.788727
0.8106487 -0.05 -0.0043955913 41.636256
0.80444162 -0.05 -0.0053326018 41.480698
0.79823371 -0.05 -0.0062641636 41.323881
0.79202498 -0.05 -0.0071902315 41.163096
0.78581546 -0.05 -0.0081108917 41.002278
0.77960513 -0.05 -0.0090261088 40.839777
0.77339398 -0.05 -0.0099358516 40.675906
0.76718205 -0.05 -0.01084018 40.508052
0.76096933 -0.05 -0.01173908 40.334617
0.75475583 -0.05 -0.012632542 40.151532
0.74854154 -0.05 -0.013520537 39.956092
0.74232647 -0.05 -0.01440305 39.74495
0.73611063 -0.05 -0.015280067 39.522177
0.729894 -0.05 -0.01615155 39.292499
0.72367661 -0.05 -0.017017534 39.063307
0.71745847 -0.05 -0.017878049 38.834566
0.71123954 -0.05 -0.018732919 38.606753
0.70501983 -0.05 -0.019582196 38.379643
0.69879937 -0.05 -0.020425845 38.153705
0.69257814 -0.05 -0.021263772 37.926964
0.68635614 -0.05 -0.022096036 37.699019
0.68013338 -0.05 -0.022922536 37.464818
0.67390986 -0.05 -0.023743284 37.219068
0.66768555 -0.05 -0.024558163 36.954503
0.66146048 -0.05 -0.025367072 36.670458
0.65523464 -0.05 -0.026170098 36.375091
0.64900804 -0.05 -0.026967152 36.077293
0.64278065 -0.05 -0.027758069 35.776861
0.63655248 -0.05 -0.028542816 35.475475
0.63032354 -0.05 -0.029321396 35.172918
0.62409382 -0.05 -0.030093672 34.869953
0.61786331 -0.05 -0.030859558 34.566417
0.61163202 -0.05 -0.031619051 34.264534
0.60539992 -0.05 -0.032372007 33.964574
0.59916704 -0.05 -0.033118354 33.666057
0.59293335 -0.05 -0.033858008 33.366889
0.58669887 -0.05 -0.034590879 33.068845
0.58046358 -0.05 -0.03531685 32.771089
0.57422747 -0.05 -0.036035779 32.473302
0.56799055 -0.05 -0.036747629 32.175479
0.56175281 -0.05 -0.037452281 31.877913
0.55551425 -0.05 -0.038149573 31.579494
0.54927486 -0.05 -0.038839433 31.280562
0.54303464 -0.05 -0.039521699 30.980404
0.53679357 -0.05 -0.040196232 30.682727
0.53055167 -0.05 -0.040862961 30.389393
0.52430892 -0.05 -0.041521715 30.100671
0.51806532 -0.05 -0.04217235 29.817328
0.51182086 -0.05 -0.042814698 29.5409
0.50557554 -0.05 -0.043448625 29.271581
0.49932937 -0.05 -0.044074003 29.010648
0.49308231 -0.05 -0.044690637 28.758096
0.48683438 -0.05 -0.045298324 28.514789
0.48058558 -0.05 -0.045896938 28.279203
0.4743359 -0.05 -0.046486341 28.05036
0.46808533 -0.05 -0.047066283 27.826199
0.46183388 -0.05 -0.04763655 27.606612
0.45558154 -0.05 -0.04819698 27.390989
0.44932831 -0.05 -0.048747388 27.179761
0.44307418 -0.05 -0.049287548 26.97216
0.43681916 -0.05 -0.04981722 26.768755
0.43056324 -0.05 -0.050336195 26.568679
0.42430642 -0.05 -0.050844272 26.372716
0.41804871 -0.05 -0.051341202 26.180176
0.4117901 -0.05 -0.051826707 25.991355
0.40553061 -0.05 -0.052300562 25.805783
0.39927021 -0.05 -0.052762481 25.623988
0.39300893 -0.05 -0.053212156 25.444505
0.38674677 -0.05 -0.053649371 25.268921
0.38048374 -0.05 -0.054073884 25.096738
0.37421982 -0.05 -0.054485297 24.928141
0.36795504 -0.05 -0.05488329 24.761883
0.36168941 -0.05 -0.055267619 24.599697
0.35542293 -0.05 -0.055637946 24.44091
0.34915563 -0.05 -0.055993916 24.285707
0.3428875 -0.05 -0.05633514 24.133446
0.33661858 -0.05 -0.056661288 23.985295
0.33034886 -0.05 -0.056971967 23.840545
0.32407838 -0.05 -0.057266753 23.698908
0.31780716 -0.05 -0.057545256 23.561797
0.31153521 -0.05 -0.057807058 23.432825
0.30526257 -0.05 -0.058051725 23.107187
0.29497209 -0.05 0.061661491 22.920259
0.28933901 -0.05 0.061445299 22.881845
0.28378758 -0.05 0.061217662 23.056121
0.27831668 -0.05 0.06097875 23.214056
0.2729252 -0.05 0.060728789 23.3705
0.26761201 -0.05 0.060468037 23.524443
0.26237601 -0.05 0.060196729 23.676739
0.25721615 -0.05 0.059915073 23.827607
0.25213136 -0.05 0.059623321 23.975993
0.24712058 -0.05 0.05932168 24.122418
0.24218281 -0.05 0.059010298 24.265286
0.23731701 -0.05 0.058689419 24.405692
0.2325222 -0.05 0.058359248 24.543564
0.22779738 -0.05 0.058020015 24.678446
0.22314158 -0.05 0.057671928 24.811807
0.21855385 -0.05 0.057315126 24.943201
0.21403323 -0.05 0.056949839 25.072113
0.2095788 -0.05 0.056576258 25.198574
0.20518966 -0.05 0.056194484 25.321267
0.20086489 -0.05 0.05580475 25.441172
0.19660359 -0.05 0.055407236 25.557394
0.19240491 -0.05 0.055002146 25.670894
0.18826796 -0.05 0.05458965 25.783593
0.1841919 -0.05 0.054169805 25.894049
0.1801759 -0.05 0.053742833 26.002556
0.17621913 -0.05 0.053308897 26.109316
0.17232077 -0.05 0.052868128 26.21306
0.16848002 -0.05 0.052420706 26.31514
0.16469609 -0.05 0.051966766 26.414773
0.16096819 -0.05 0.051506417 26.512583
0.15729559 -0.05 0.051039763 26.60791
0.1536775 -0.05 0.050567001 26.700819
0.15011319 -0.05 0.050088221 26.790099
0.14660194 -0.05 0.049603537 26.875762
0.14314302 -0.05 0.049113076 26.958227
0.13973572 -0.05 0.048616903 27.035658
0.13637934 -0.05 0.048115155 27.10764
0.1330732 -0.05 0.047607922 27.17446
0.12981662 -0.05 0.047095349 27.235541
0.12660893 -0.05 0.046577522 27.291375
0.12344949 -0.05 0.046054444 27.340491
0.12033765 -0.05 0.045526276 27.383594
0.11727277 -0.05 0.044993116 27.424044
0.11425423 -0.05 0.044454956 27.464872
0.11128144 -0.05 0.04391185 27.503623
0.10835378 -0.05 0.043363905 27.535278
0.10547068 -0.05 0.042811134 27.558428
0.10263155 -0.05 0.042253609 27.570578
0.099835798 -0.05 0.041691463 27.575461
0.09708289 -0.05 0.041124617 27.574562
0.094372283 -0.05 0.040553106 27.572961
0.091703421 -0.05 0.039977052 27.57909
0.089075803 -0.05 0.039396351 27.588947
0.086488907 -0.05 0.038811048 27.604102
0.083942222 -0.05 0.03822119 27.634646
0.081435252 -0.05 0.037626783 27.669636
0.078967508 -0.05 0.037027851 27.711837
0.076538546 -0.05 0.036424271 27.758452
0.074147911 -0.05 0.035816017 27.809384
0.071795131 -0.05 0.035203141 27.865392
0.069479763 -0.05 0.034585645 27.927574
0.067201408 -0.05 0.0339634 27.992492
0.064959652 -0.05 0.03333635 28.056447
0.062754089 -0.05 0.032704472 28.120041
0.060584344 -0.05 0.032067659 28.181436
0.058450052 -0.05 0.031425812 28.23783
0.056350852 -0.05 0.030778853 28.287966
0.054286409 -0.05 0.030126666 28.331567
0.052256374 -0.05 0.029469203 28.369385
0.050260464 -0.05 0.028806261 28.404389
0.048298395 -0.05 0.028137679 28.430059
0.046369866 -0.05 0.027463377 28.451579
0.044474632 -0.05 0.02678316 28.466242
0.042612466 -0.05 0.026096833 28.475225
0.040783185 -0.05 0.025404113 28.476507
0.0389866 -0.05 0.024704797 28.468416
0.037222518 -0.05 0.023998727 28.452158
0.035490819 -0.05 0.02328561 28.429332
0.033791414 -0.05 0.022565137 28.401601
0.032124241 -0.05 0.021836989 28.359937
0.030489261 -0.05 0.021100849 28.302399
0.028886485 -0.05 0.020356364 28.244894
0.027315984 -0.05 0.019603105 28.17535
0.025777843 -0.05 0.018840693 28.09133
0.024272233 -0.05 0.018068651 27.99811
0.022799387 -0.05 0.01728647 27.890295
0.021359585 -0.05 0.016493652 27.769306
0.019953235 -0.05 0.015689586 27.63464
0.01858077 -0.05 0.014873717 27.483954
0.017242791 -0.05 0.014045345 27.321575
0.015939992 -0.05 0.013203739 27.133569
0.014673155 -0.05 0.012348189 26.920389
0.013443258 -0.05 0.011477885 26.673308
0.012251459 -0.05 0.010592015 26.389495
0.011099115 -0.05 0.0096897369 26.063016
0.0099878154 -0.05 0.0087701187 25.690175
0.0089193467 -0.05 0.0078321751 25.256818
0.007895805 -0.05 0.0068751307 24.75039
0.0069197098 -0.05 0.0058982421 24.152845
0.0059938322 -0.05 0.0049005259 23.450469
0.0051212553 -0.05 0.0038813689 22.61464
0.0043057151 -0.05 0.0028407452 21.624311
0.0035510932 -0.05 0.0017784216 20.441511
0.002861468 -0.05 0.00069472564 19.024806
0.0022415264 -0.05 -0.00040885075 17.311418
0.001695786 -0.05 -0.0015306679 15.24937
0.0012284931 -0.05 -0.0026680708 12.712908
0.00084342447 -0.05 -0.0038168819 9.6398293
0.00054349773 -0.05 -0.0049725918 6.5438025
0.00033027125 -0.05 -0.006129835 2.5910957
0.00020360785 -0.05 -0.0072825547 7.0105662
0.00016179116 -0.05 -0.0084247438 10.163527
0.99639417 -0.05 0.027314995 2.5657915
0.99015281 -0.05 0.027986788 2.0650936
0.9839107 -0.05 0.028651563 0.26529921
0.97766784 -0.05 0.029309346 1.4808754
0.97142426 -0.05 0.029960243 1.4610757
0.96517999 -0.05 0.030604416 1.7750901
0.95893503 -0.05 0.031241846 1.9784272
0.95268939 -0.05 0.031872599 2.2052156
0.94644309 -0.05 0.032496828 2.410585
0.94019615 -0.05 0.03311462 2.6089905
0.93394858 -0.05 0.033725981 2.7980799
0.9277004 -0.05 0.03433097 2.9762839
0.9214516 -0.05 0.034929664 3.1469945
0.91520221 -0.05 0.035522099 3.3106728
0.90895224 -0.05 0.036108426 3.4699486
0.9027017 -0.05 0.036688644 3.6232971
0.8964506 -0.05 0.037262785 3.7708865
0.89019896 -0.05 0.037830985 3.9156288
0.88394678 -0.05 0.038393258 4.0581611
0.87769406 -0.05 0.038949548 4.199824
0.87144083 -0.05 0.039499991 4.3449772
0.8651871 -0.05 0.040044658 4.4884867
0.85893286 -0.05 0.040583519 4.6288364
0.85267812 -0.05 0.041116662 4.7669012
0.84642292 -0.05 0.04164415 4.903128
0.84016723 -0.05 0.042165969 5.0380632
0.83391107 -0.05 0.042682083 5.1706867
0.82765445 -0.05 0.043192668 5.3026347
0.82139739 -0.05 0.043697684 5.4341858
0.81513988 -0.05 0.044197085 5.5641448
0.80888193 -0.05 0.04469095 5.6941101
0.80262353 -0.05 0.04517929 5.8231842
0.79636472 -0.05 0.045662136 5.9524928
0.79010548 -0.05 0.046139443 6.080979
0.78384584 -0.05 0.0466113 6.2098571
0.77758578 -0.05 0.047077669 6.3392215
0.77132531 -0.05 0.04753852 6.4682678
0.76506443 -0.05 0.047993913 6.598094
0.75880316 -0.05 0.048443837 6.7282789
0.7525415 -0.05 0.048888278 6.8592361
0.74627945 -0.05 0.049327212 6.9909224
0.74001702 -0.05 0.049760621 7.1234322
0.73375421 -0.05 0.050188492 7.2568466
0.72749102 -0.05 0.050610789 7.3909262
0.72122746 -0.05 0.051027545 7.5260421
0.71496353 -0.05 0.051438791 7.6634149
0.70869924 -0.05 0.051844352 7.8019451
0.70243458 -0.05 0.052244278 7.9416353
0.69616955 -0.05 0.052638536 8.0836448
0.68990418 -0.05 0.053027032 8.2257993
0.68363845 -0.05 0.053409824 8.3703708
0.67737238 -0.05 0.053786812 8.5161639
0.67110594 -0.05 0.054158008 8.6641739
0.66483917 -0.05 0.054523295 8.8141419
0.65857206 -0.05 0.054882572 8.9648979
0.6523046 -0.05 0.055235924 9.1189812
0.6460368 -0.05 0.055583266 9.2773404
0.63976866 -0.05 0.055924432 9.4408006
0.6335002 -0.05 0.056259386 9.6135504
0.6272314 -0.05 0.056588134 9.7992361
0.62096227 -0.05 0.056910538 9.9937252
0.61469282 -0.05 0.057226511 10.189832
0.60842305 -0.05 0.057536053 10.386632
0.60215295 -0.05 0.057839017 10.583432
0.59588253 -0.05 0.058135332 10.780689
0.5896118 -0.05 0.058424913 10.979252
0.58334076 -0.05 0.058707671 11.178938
0.57706942 -0.05 0.05898349 11.38018
0.57079776 -0.05 0.059252225 11.580596
0.56452581 -0.05 0.059513843 11.78342
0.55825355 -0.05 0.059768222 11.988592
0.551981 -0.05 0.0600152 12.19583
0.54570816 -0.05 0.060254707 12.4059
0.53943504 -0.05 0.060486579 12.618401
0.53316162 -0.05 0.060710678 12.832652
0.52688794 -0.05 0.060926932 13.04988
0.52061399 -0.05 0.06113517 13.269554
0.51433977 -0.05 0.06133525 13.491463
0.50806528 -0.05 0.061527003 13.71562
0.50179055 -0.05 0.061710295 13.942323
0.49551557 -0.05 0.061884998 14.172343
0.48924035 -0.05 0.062050917 14.40455
0.4829649 -0.05 0.062207849 14.638847
0.47668923 -0.05 0.062355668 14.875576
0.47041335 -0.05 0.062494238 15.115408
0.46413727 -0.05 0.062623308 15.357387
0.45786099 -0.05 0.062742663 15.601784
0.45158454 -0.05 0.062852142 15.848829
0.44530792 -0.05 0.062951563 16.098527
0.43903115 -0.05 0.063040696 16.350481
0.43275423 -0.05 0.063119306 16.60469
0.42647718 -0.05 0.06318718 16.861042
0.42020003 -0.05 0.063244121 17.120243
0.41392279 -0.05 0.063289879 17.381922
0.40764547 -0.05 0.063324178 17.645805
0.4013681 -0.05 0.063346792 17.912147
0.3950907 -0.05 0.063357439 18.18087
0.38881329 -0.05 0.063355807 18.450652
0.3825359 -0.05 0.063341685 18.72291
0.37625856 -0.05 0.063314831 18.998308
0.36998127 -0.05 0.063274847 19.275962
0.36370409 -0.05 0.063221416 19.554244
0.35742704 -0.05 0.063154295 19.834976
0.35115015 -0.05 0.063073148 20.117767
0.34487348 -0.05 0.062977621 20.403182
0.33859704 -0.05 0.062867328 20.689888
0.33232089 -0.05 0.062741939 20.978035
0.32604506 -0.05 0.062601066 21.267247
0.31976961 -0.05 0.062444286 21.557486
0.31349459 -0.05 0.06227121 21.846756
0.30722006 -0.05 0.062081426 22.143771
0.30094605 -0.05 0.061874501 22.639655
