# p  FACE_DATA 448
# x y z  p
0.29845606 -0.05 -0.058963034 99518.546
0.29281988 -0.05 -0.059072329 99512.313
0.28726457 -0.05 -0.059165484 99505.836
0.28178901 -0.05 -0.059242735 99499.6
0.27639208 -0.05 -0.059304373 99493.395
0.27107269 -0.05 -0.059350718 99487.36
0.26582977 -0.05 -0.05938207 99481.443
0.26066225 -0.05 -0.059398697 99475.762
0.2555691 -0.05 -0.059400911 99470.098
0.25054927 -0.05 -0.059388981 99464.617
0.24560176 -0.05 -0.059363113 99459.205
0.24072555 -0.05 -0.059323609 99453.964
0.23591968 -0.05 -0.059270732 99448.935
0.23118315 -0.05 -0.059204767 99444.031
0.22651503 -0.05 -0.059125981 99439.2
0.22191434 -0.05 -0.059034565 99434.538
0.21738018 -0.05 -0.058930805 99429.791
0.21291161 -0.05 -0.058814945 99425.247
0.20850775 -0.05 -0.058687136 99420.92
0.20416769 -0.05 -0.058547665 99416.718
0.19989056 -0.05 -0.058396765 99412.69
0.19567549 -0.05 -0.058234686 99408.668
0.19152163 -0.05 -0.058061651 99404.773
0.18742814 -0.05 -0.057877765 99401.116
0.18339419 -0.05 -0.057683297 99397.494
0.17941897 -0.05 -0.057478458 99394.181
0.17550167 -0.05 -0.057263427 99390.887
0.1716415 -0.05 -0.057038429 99387.701
0.16783767 -0.05 -0.056803643 99384.453
0.16408942 -0.05 -0.056559225 99381.357
0.16039601 -0.05 -0.05630532 99378.401
0.15675666 -0.05 -0.056042174 99375.574
0.15317066 -0.05 -0.055769914 99372.951
0.14963729 -0.05 -0.055488699 99370.366
0.14615581 -0.05 -0.055198694 99367.972
0.14272556 -0.05 -0.054900009 99365.763
0.13934581 -0.05 -0.054592818 99363.69
0.13601592 -0.05 -0.054277251 99361.956
0.13273518 -0.05 -0.053953493 99360.244
0.12950295 -0.05 -0.053621668 99358.823
0.12631859 -0.05 -0.053281818 99357.597
0.12318145 -0.05 -0.052934137 99356.339
0.12009091 -0.05 -0.052578762 99355.238
0.11704634 -0.05 -0.05221572 99354.368
0.11404716 -0.05 -0.0518451 99353.636
0.11109276 -0.05 -0.051467045 99353.049
0.10818256 -0.05 -0.051081601 99352.834
0.10531598 -0.05 -0.050688872 99352.618
0.10249244 -0.05 -0.050289026 99352.503
0.099711405 -0.05 -0.049882016 99352.834
0.096972332 -0.05 -0.049467907 99353.166
0.094274671 -0.05 -0.049046851 99353.617
0.091617917 -0.05 -0.048618778 99354.582
0.089001553 -0.05 -0.04818376 99355.558
0.086425067 -0.05 -0.047741872 99356.917
0.083887968 -0.05 -0.047293152 99358.224
0.08138977 -0.05 -0.04683765 99359.843
0.078930021 -0.05 -0.046375268 99361.889
0.076508263 -0.05 -0.045906008 99364.255
0.074124033 -0.05 -0.04542995 99366.699
0.071776884 -0.05 -0.044947121 99369.393
0.069466412 -0.05 -0.044457415 99372.575
0.067192202 -0.05 -0.043960797 99375.965
0.064953846 -0.05 -0.043457271 99379.685
0.062750963 -0.05 -0.042946752 99383.821
0.060583182 -0.05 -0.04242916 99388.38
0.058450142 -0.05 -0.04190444 99393.345
0.056351498 -0.05 -0.041372494 99398.8
0.0542869 -0.05 -0.040833295 99404.428
0.052256054 -0.05 -0.040286658 99410.99
0.050258667 -0.05 -0.039732434 99417.843
0.048294434 -0.05 -0.039170565 99425.325
0.0463631 -0.05 -0.03860087 99433.253
0.044464424 -0.05 -0.038023167 99441.922
0.042598212 -0.05 -0.037437182 99451.515
0.040764258 -0.05 -0.036842726 99461.858
0.038962364 -0.05 -0.03623965 99472.84
0.037192394 -0.05 -0.035627672 99484.867
0.035454238 -0.05 -0.035006484 99497.825
0.033747817 -0.05 -0.034375774 99512.05
0.032073075 -0.05 -0.033735228 99527.333
0.03043 -0.05 -0.033084493 99544.106
0.028818641 -0.05 -0.032423135 99562.343
0.027239061 -0.05 -0.031750771 99582.105
0.025691402 -0.05 -0.031066916 99603.778
0.024175865 -0.05 -0.030371047 99627.384
0.022692704 -0.05 -0.029662652 99653.176
0.02124229 -0.05 -0.028941096 99681.547
0.019825022 -0.05 -0.028205803 99712.341
0.018441463 -0.05 -0.027456036 99746.579
0.017092261 -0.05 -0.026691028 99783.963
0.015778155 -0.05 -0.025910022 99825.331
0.014500077 -0.05 -0.025112155 99870.808
0.013259135 -0.05 -0.024296549 99921.105
0.012056636 -0.05 -0.023462286 99976.232
0.01089411 -0.05 -0.022608341 100037.29
0.009773287 -0.05 -0.02173363 100104.91
0.0086962136 -0.05 -0.020837258 100180.23
0.0076653622 -0.05 -0.019918335 100262.79
0.0066834427 -0.05 -0.018975721 100353.83
0.0057534974 -0.05 -0.018008626 100452.59
0.0048792548 -0.05 -0.017016808 100559.89
0.0040645765 -0.05 -0.015999809 100675.06
0.0033135529 -0.05 -0.014957723 100796.64
0.0026309495 -0.05 -0.013891769 100922.64
0.0020213706 -0.05 -0.01280332 101050.2
0.001489209 -0.05 -0.011694784 101175.13
0.001038476 -0.05 -0.010570113 101291.9
0.00067234486 -0.05 -0.0094336405 101393.8
0.00039268093 -0.05 -0.0082906333 101477.17
0.00019969687 -0.05 -0.007147146 101540.27
9.2025876e-05 -0.05 -0.0060092743 101577.66
0.99672645 -0.05 0.015810358 99950.831
0.99053427 -0.05 0.01477945 99961.48
0.98434093 -0.05 0.013755506 99951.754
0.97814645 -0.05 0.0127385 99956.628
0.97195085 -0.05 0.011728325 99953.586
0.96575417 -0.05 0.010724824 99954.314
0.95955641 -0.05 0.0097280138 99953.075
0.95335759 -0.05 0.0087378317 99952.753
0.94715773 -0.05 0.0077541235 99951.912
0.94095686 -0.05 0.006776805 99951.304
0.934755 -0.05 0.0058058715 99950.509
0.92855214 -0.05 0.0048412631 99949.791
0.92234832 -0.05 0.0038829036 99948.958
0.91614354 -0.05 0.0029307584 99948.178
0.90993782 -0.05 0.001984677 99947.3
0.90373119 -0.05 0.0010446619 99946.459
0.89752365 -0.05 0.00011068202 99945.53
0.89131523 -0.05 -0.00081739821 99944.619
0.88510592 -0.05 -0.0017395923 99943.629
0.87889574 -0.05 -0.0026558435 99942.65
0.8726847 -0.05 -0.003566289 99941.599
0.86647283 -0.05 -0.0044709964 99940.558
0.86026011 -0.05 -0.0053699371 99939.444
0.85404658 -0.05 -0.0062631973 99938.334
0.84783224 -0.05 -0.0071508393 99937.154
0.8416171 -0.05 -0.0080328493 99935.966
0.83540116 -0.05 -0.0089091909 99934.709
0.82918445 -0.05 -0.0097800391 99933.435
0.82296696 -0.05 -0.010645353 99932.098
0.81674871 -0.05 -0.011505088 99930.743
0.8105297 -0.05 -0.012359322 99929.324
0.80430992 -0.05 -0.013208065 99927.884
0.79808941 -0.05 -0.014051348 99926.378
0.79186816 -0.05 -0.014889125 99924.835
0.78564618 -0.05 -0.015721485 99923.225
0.77942347 -0.05 -0.016548389 99921.575
0.77320003 -0.05 -0.017369809 99919.86
0.76697587 -0.05 -0.018185805 99918.1
0.76075101 -0.05 -0.018996361 99916.268
0.75452545 -0.05 -0.019801468 99914.388
0.74829917 -0.05 -0.020601098 99912.436
0.74207219 -0.05 -0.021395234 99910.425
0.73584452 -0.05 -0.022183865 99908.347
0.72961614 -0.05 -0.022966951 99906.208
0.72338708 -0.05 -0.023744529 99903.99
0.71715733 -0.05 -0.024516625 99901.702
0.71092689 -0.05 -0.025283068 99899.337
0.70469575 -0.05 -0.026043906 99896.879
0.69846393 -0.05 -0.026799107 99894.349
0.69223142 -0.05 -0.027548575 99891.72
0.68599823 -0.05 -0.02829237 99888.999
0.67976435 -0.05 -0.029030391 99886.187
0.6735298 -0.05 -0.029762649 99883.259
0.66729456 -0.05 -0.030489028 99880.247
0.66105862 -0.05 -0.031209427 99877.112
0.654822 -0.05 -0.031923931 99873.87
0.6485847 -0.05 -0.032632454 99870.512
0.64234671 -0.05 -0.033334829 99867.059
0.63610802 -0.05 -0.034031025 99863.477
0.62986865 -0.05 -0.034721043 99859.775
0.62362858 -0.05 -0.035404745 99855.927
0.61738783 -0.05 -0.036082047 99851.965
0.61114636 -0.05 -0.036752946 99847.856
0.6049042 -0.05 -0.037417298 99843.632
0.59866135 -0.05 -0.03807503 99839.234
0.59241779 -0.05 -0.038726059 99834.754
0.58617352 -0.05 -0.039370293 99830.117
0.57992855 -0.05 -0.040007616 99825.384
0.57368285 -0.05 -0.040637885 99820.466
0.56743646 -0.05 -0.041261067 99815.411
0.56118934 -0.05 -0.04187704 99810.216
0.5549415 -0.05 -0.042485641 99804.917
0.54869294 -0.05 -0.043086799 99799.429
0.54244366 -0.05 -0.043680352 99793.839
0.53619364 -0.05 -0.044266161 99788.079
0.5299429 -0.05 -0.044844155 99782.227
0.52369142 -0.05 -0.045414161 99776.198
0.5174392 -0.05 -0.045976038 99770.047
0.51118624 -0.05 -0.046529618 99763.766
0.50493256 -0.05 -0.047074764 99757.39
0.49867813 -0.05 -0.047611351 99750.864
0.49242294 -0.05 -0.048139182 99744.23
0.48616701 -0.05 -0.048658054 99737.47
0.47991034 -0.05 -0.049167841 99730.698
0.47365292 -0.05 -0.049668407 99723.953
0.46739475 -0.05 -0.050159499 99717.171
0.46113582 -0.05 -0.050640904 99710.229
0.45487614 -0.05 -0.051112461 99703.184
0.44861572 -0.05 -0.051573985 99696.056
0.44235455 -0.05 -0.052025249 99688.919
0.43609264 -0.05 -0.052466013 99681.678
0.42982998 -0.05 -0.052896068 99674.383
0.42356658 -0.05 -0.053315214 99667.031
0.41730244 -0.05 -0.053723201 99659.711
0.41103756 -0.05 -0.054119752 99652.308
0.40477197 -0.05 -0.054504641 99644.833
0.39850565 -0.05 -0.054877584 99637.386
0.39223861 -0.05 -0.055238271 99630.012
0.38597087 -0.05 -0.055586485 99622.546
0.37970243 -0.05 -0.055921986 99614.985
0.37343331 -0.05 -0.056244378 99607.486
0.36716351 -0.05 -0.056553337 99600.042
0.36089305 -0.05 -0.056848622 99592.58
0.35462195 -0.05 -0.057129894 99585.052
0.34835021 -0.05 -0.0573968 99577.522
0.34207787 -0.05 -0.057648949 99570.112
0.33580494 -0.05 -0.057886012 99562.658
0.32953145 -0.05 -0.058107597 99555.208
0.32325741 -0.05 -0.058313279 99547.759
0.31698287 -0.05 -0.058502669 99540.354
0.31070783 -0.05 -0.058675351 99532.789
0.30443235 -0.05 -0.058830888 99525.881
0.29584347 -0.05 0.061016428 99454.95
0.29020788 -0.05 0.060880278 99449.881
0.28465379 -0.05 0.060731523 99445.562
0.27918005 -0.05 0.06057035 99441.217
0.27378556 -0.05 0.060397002 99437.007
0.2684692 -0.05 0.060211751 99432.913
0.26322988 -0.05 0.060014851 99428.954
0.25806653 -0.05 0.059806521 99425.15
0.25297811 -0.05 0.059587028 99421.377
0.24796356 -0.05 0.059356597 99417.778
0.24302186 -0.05 0.059115389 99414.314
0.238152 -0.05 0.058863662 99410.964
0.23335298 -0.05 0.058601636 99407.735
0.22862382 -0.05 0.058329554 99404.58
0.22396353 -0.05 0.05804764 99401.567
0.21937119 -0.05 0.057756045 99398.721
0.21484585 -0.05 0.057455012 99395.915
0.21038657 -0.05 0.057144745 99393.284
0.20599244 -0.05 0.056825357 99390.817
0.20166257 -0.05 0.056497096 99388.446
0.19739606 -0.05 0.056160156 99386.249
0.19319205 -0.05 0.05581475 99384.067
0.18904965 -0.05 0.055461063 99382.048
0.18496804 -0.05 0.055099162 99380.227
0.18094638 -0.05 0.054729282 99378.456
0.17698385 -0.05 0.054351596 99376.895
0.17307962 -0.05 0.053966249 99375.406
0.1692329 -0.05 0.053573432 99374.07
0.1654429 -0.05 0.053173289 99372.838
0.16170884 -0.05 0.052765941 99371.818
0.15802997 -0.05 0.052351504 99370.929
0.15440553 -0.05 0.051930187 99370.115
0.15083479 -0.05 0.051502087 99369.511
0.14731701 -0.05 0.051067332 99368.955
0.14385146 -0.05 0.050626054 99368.576
0.14043745 -0.05 0.050178333 99368.354
0.13707428 -0.05 0.049724314 99368.351
0.13376128 -0.05 0.049264097 99368.508
0.13049774 -0.05 0.048797836 99368.723
0.12728302 -0.05 0.048325627 99369.154
0.12411648 -0.05 0.047847483 99369.797
0.12099745 -0.05 0.047363573 99370.443
0.1179253 -0.05 0.046874004 99371.262
0.11489942 -0.05 0.046378778 99372.301
0.11191922 -0.05 0.045877955 99373.595
0.10898407 -0.05 0.045371655 99375.038
0.10609341 -0.05 0.044859895 99376.803
0.10324665 -0.05 0.044342757 99378.589
0.10044319 -0.05 0.043820381 99380.494
0.097682507 -0.05 0.043292698 99382.703
0.094964055 -0.05 0.04275975 99385.056
0.092287278 -0.05 0.042221666 99387.619
0.089651676 -0.05 0.04167835 99390.627
0.087056728 -0.05 0.041129855 99393.768
0.08450192 -0.05 0.040576232 99397.239
0.08198676 -0.05 0.040017497 99400.705
0.079510757 -0.05 0.03945368 99404.462
0.077073467 -0.05 0.038884666 99408.603
0.074674431 -0.05 0.038310432 99413.129
0.072313183 -0.05 0.03773104 99417.9
0.069989277 -0.05 0.037146497 99423.007
0.067702312 -0.05 0.03655668 99428.438
0.065451875 -0.05 0.035961538 99434.05
0.063237558 -0.05 0.035361054 99439.979
0.061058986 -0.05 0.034755126 99446.462
0.058915792 -0.05 0.034143662 99453.487
0.056807614 -0.05 0.033526589 99461.074
0.054734115 -0.05 0.032903794 99469.02
0.052694945 -0.05 0.032275234 99477.104
0.050689819 -0.05 0.031640713 99485.868
0.04871845 -0.05 0.031000069 99495.216
0.046780537 -0.05 0.030353229 99505.333
0.044875833 -0.05 0.029700004 99516.128
0.043004104 -0.05 0.029040199 99527.508
0.041165168 -0.05 0.028373535 99539.548
0.039358829 -0.05 0.027699809 99552.489
0.037584895 -0.05 0.02701887 99566.406
0.035843241 -0.05 0.026330424 99581.535
0.034133773 -0.05 0.025634165 99597.872
0.032456425 -0.05 0.024929773 99615.025
0.030811154 -0.05 0.024216932 99632.696
0.029197963 -0.05 0.023495291 99651.871
0.02761692 -0.05 0.022764417 99673.166
0.026068104 -0.05 0.022023932 99696.495
0.02455168 -0.05 0.021273355 99721.543
0.023067871 -0.05 0.020512175 99747.555
0.021616952 -0.05 0.01973989 99775.952
0.020199322 -0.05 0.018955882 99807.662
0.018815405 -0.05 0.018159592 99841.542
0.017465794 -0.05 0.017350311 99877.858
0.016151171 -0.05 0.016527297 99916.295
0.014872309 -0.05 0.015689828 99957.397
0.013630172 -0.05 0.014837083 100002.52
0.012425911 -0.05 0.013968232 100054.01
0.011260867 -0.05 0.013082415 100111.71
0.010136615 -0.05 0.012178676 100176.68
0.0090549302 -0.05 0.011256004 100249.27
0.0080178966 -0.05 0.010313596 100328.08
0.0070280228 -0.05 0.0093506718 100413
0.0060880659 -0.05 0.0083662085 100503.25
0.0052010995 -0.05 0.0073595496 100599.13
0.0043708592 -0.05 0.0063306159 100702.32
0.003601223 -0.05 0.0052791192 100812.68
0.002896273 -0.05 0.0042053289 100927.9
0.0022607175 -0.05 0.0031106703 101045.56
0.0016990963 -0.05 0.0019967186 101162.79
0.0012156935 -0.05 0.00086606859 101275.15
0.0008143445 -0.05 -0.00027715659 101376.56
0.00049803085 -0.05 -0.0014284893 101461.4
0.0002683869 -0.05 -0.0025825868 101528.14
0.00012536157 -0.05 -0.0037333908 101571.29
6.732398e-05 -0.05 -0.0048748708 101587.65
0.99670687 -0.05 0.016709496 100173.32
0.99047569 -0.05 0.017469883 100053.97
0.98424365 -0.05 0.018223261 100057.66
0.97801076 -0.05 0.018969659 100036.55
0.97177707 -0.05 0.019709183 100025.97
0.96554258 -0.05 0.020441992 100013.87
0.9593073 -0.05 0.02116807 100003.85
0.95307125 -0.05 0.021887479 99994.217
0.94683445 -0.05 0.022600377 99985.359
0.94059692 -0.05 0.023306846 99976.841
0.93435866 -0.05 0.024006893 99968.958
0.9281197 -0.05 0.024700578 99961.295
0.92188004 -0.05 0.025387978 99954.108
0.91563969 -0.05 0.026069127 99947.19
0.90939868 -0.05 0.026744179 99940.404
0.90315701 -0.05 0.02741313 99933.976
0.8969147 -0.05 0.028076011 99927.726
0.89067177 -0.05 0.02873296 99921.56
0.8844282 -0.05 0.02938399 99915.578
0.87818401 -0.05 0.030029045 99909.9
0.87193923 -0.05 0.030668261 99904.154
0.86569387 -0.05 0.031301709 99898.663
0.85944791 -0.05 0.03192936 99893.281
0.85320138 -0.05 0.032551299 99888.007
0.8469543 -0.05 0.033167591 99882.742
0.84070666 -0.05 0.033778221 99877.656
0.83445846 -0.05 0.034383153 99872.756
0.82820974 -0.05 0.034982564 99867.629
0.82196048 -0.05 0.035576412 99862.806
0.81571069 -0.05 0.036164652 99857.937
0.80946038 -0.05 0.036747363 99853.208
0.80320956 -0.05 0.037324556 99848.424
0.79695824 -0.05 0.037896262 99843.731
0.79070641 -0.05 0.038462436 99839.142
0.7844541 -0.05 0.039023164 99834.429
0.77820129 -0.05 0.039578412 99829.888
0.77194799 -0.05 0.040128148 99825.31
0.76569423 -0.05 0.040672434 99820.79
0.75943998 -0.05 0.041211255 99816.279
0.75318526 -0.05 0.0417446 99811.809
0.74693008 -0.05 0.042272444 99807.344
0.74067445 -0.05 0.042794769 99802.891
0.73441834 -0.05 0.043311561 99798.446
0.72816178 -0.05 0.043822786 99794.055
0.72190477 -0.05 0.044328476 99789.555
0.71564732 -0.05 0.044828661 99785.048
0.70938942 -0.05 0.045323167 99780.742
0.70313107 -0.05 0.045812044 99776.198
0.69687229 -0.05 0.046295259 99771.886
0.69061306 -0.05 0.046772718 99767.495
0.6843534 -0.05 0.047244477 99763.097
0.6780933 -0.05 0.047710439 99758.698
0.67183279 -0.05 0.048170613 99754.152
0.66557184 -0.05 0.048624885 99749.73
0.65931045 -0.05 0.049073152 99745.284
0.65304864 -0.05 0.0495155 99740.73
0.64678641 -0.05 0.049951843 99736.223
0.64052376 -0.05 0.050382014 99731.816
0.63426068 -0.05 0.050805981 99727.373
0.62799719 -0.05 0.051223745 99722.84
0.62173327 -0.05 0.051635171 99718.388
0.61546894 -0.05 0.052040172 99713.864
0.6092042 -0.05 0.052438746 99709.247
0.60293904 -0.05 0.052830747 99704.667
0.59667346 -0.05 0.053216105 99700.006
0.59040749 -0.05 0.053594736 99695.442
0.58414109 -0.05 0.053966548 99690.813
0.57787429 -0.05 0.054331425 99686.264
0.57160708 -0.05 0.054689223 99681.687
0.56533948 -0.05 0.05503991 99677.046
0.55907147 -0.05 0.055383362 99672.351
0.55280306 -0.05 0.055719418 99667.616
0.54653426 -0.05 0.056048009 99662.778
0.54026506 -0.05 0.056368969 99658.014
0.53399546 -0.05 0.05668216 99653.171
0.52772548 -0.05 0.056987513 99648.355
0.52145512 -0.05 0.057284853 99643.561
0.51518437 -0.05 0.05757404 99638.741
0.50891325 -0.05 0.057854905 99633.889
0.50264175 -0.05 0.058127312 99628.964
0.49636989 -0.05 0.058391135 99623.958
0.49009766 -0.05 0.058646178 99618.931
0.48382508 -0.05 0.058892239 99613.909
0.47755215 -0.05 0.059129191 99608.792
0.47127887 -0.05 0.059356898 99603.619
0.46500525 -0.05 0.059575108 99598.47
0.4587313 -0.05 0.059783608 99593.239
0.45245704 -0.05 0.059982235 99587.966
0.44618245 -0.05 0.060170806 99582.692
0.43990758 -0.05 0.060349094 99577.434
0.43363241 -0.05 0.060516861 99572.12
0.42735696 -0.05 0.060673896 99566.771
0.42108125 -0.05 0.06082 99561.355
0.41480529 -0.05 0.060954923 99555.969
0.4085291 -0.05 0.06107839 99550.529
0.40225269 -0.05 0.061190174 99545.045
0.39597607 -0.05 0.061289992 99539.591
0.38969928 -0.05 0.061377533 99534.205
0.38342232 -0.05 0.061452584 99528.743
0.37714522 -0.05 0.061514904 99523.236
0.370868 -0.05 0.061564095 99517.815
0.3645907 -0.05 0.061599838 99512.408
0.35831333 -0.05 0.061621891 99506.977
0.35203593 -0.05 0.061629917 99501.565
0.34575852 -0.05 0.061623562 99496.166
0.33948114 -0.05 0.061602439 99490.845
0.33320384 -0.05 0.061566217 99485.481
0.32692665 -0.05 0.061514508 99480.181
0.32064961 -0.05 0.061446888 99474.955
0.31437277 -0.05 0.061362969 99469.929
0.30809617 -0.05 0.061262335 99464.568
0.30181986 -0.05 0.061144554 99458.6
