# wallShearStress  FACE_DATA 448
# x y z  wallShearStress_x wallShearStress_y wallShearStress_z
0.29845606 -0.05 -0.058963034 -6.8148356 4.1426526e-17 -0.12484715
0.29281988 -0.05 -0.059072329 -7.1121082 9.8538358e-17 -0.11190378
0.28726457 -0.05 -0.059165484 -7.3709487 4.2602158e-18 -0.097203297
0.28178901 -0.05 -0.059242735 -7.6309322 2.4842917e-17 -0.080741804
0.27639208 -0.05 -0.059304373 -7.8904489 3.5971141e-18 -0.063437098
0.27107269 -0.05 -0.059350718 -8.1517536 5.4727074e-18 -0.042742244
0.26582977 -0.05 -0.05938207 -8.4139331 7.336288e-18 -0.019966025
0.26066225 -0.05 -0.059398697 -8.675634 -1.880562e-19 0.0041964852
0.2555691 -0.05 -0.059400911 -8.9366342 -2.2873885e-18 0.030430135
0.25054927 -0.05 -0.059388981 -9.1980502 -2.1826813e-17 0.058683367
0.24560176 -0.05 -0.059363113 -9.4592068 -1.8682176e-17 0.086002114
0.24072555 -0.05 -0.059323609 -9.7193406 3.2762216e-18 0.11560775
0.23591968 -0.05 -0.059270732 -9.9772357 -3.4226456e-17 0.14693564
0.23118315 -0.05 -0.059204767 -10.231441 1.1246929e-16 0.18049589
0.22651503 -0.05 -0.059125981 -10.48268 5.1858781e-19 0.21609614
0.22191434 -0.05 -0.059034565 -10.730012 -4.4731236e-17 0.25351533
0.21738018 -0.05 -0.058930805 -10.972661 3.9239536e-17 0.29249808
0.21291161 -0.05 -0.058814945 -11.209227 -7.7741089e-17 0.33344286
0.20850775 -0.05 -0.058687136 -11.437853 1.4405193e-17 0.37597514
0.20416769 -0.05 -0.058547665 -11.660499 -7.9533707e-17 0.42014892
0.19989056 -0.05 -0.058396765 -11.878342 3.4606648e-17 0.46610971
0.19567549 -0.05 -0.058234686 -12.095172 -4.3871004e-17 0.51372197
0.19152163 -0.05 -0.058061651 -12.316678 -1.0042793e-16 0.56329765
0.18742814 -0.05 -0.057877765 -12.537353 -1.6696224e-16 0.6143053
0.18339419 -0.05 -0.057683297 -12.754161 -9.7948111e-17 0.66643935
0.17941897 -0.05 -0.057478458 -12.960733 7.4565349e-17 0.72015076
0.17550167 -0.05 -0.057263427 -13.150634 -1.9830769e-16 0.77520283
0.1716415 -0.05 -0.057038429 -13.320536 -4.0673362e-17 0.83248987
0.16783767 -0.05 -0.056803643 -13.473327 3.7491616e-17 0.89236404
0.16408942 -0.05 -0.056559225 -13.622217 -3.1205049e-17 0.95599294
0.16039601 -0.05 -0.05630532 -13.782774 1.363552e-18 1.023273
0.15675666 -0.05 -0.056042174 -13.965218 -7.7263419e-16 1.0943396
0.15317066 -0.05 -0.055769914 -14.158129 1.9703731e-16 1.1686044
0.14963729 -0.05 -0.055488699 -14.361 5.7360386e-16 1.2460672
0.14615581 -0.05 -0.055198694 -14.573545 -7.8092122e-17 1.3270489
0.14272556 -0.05 -0.054900009 -14.798216 -6.9448716e-16 1.4113201
0.13934581 -0.05 -0.054592818 -15.040571 -2.0768224e-17 1.499331
0.13601592 -0.05 -0.054277251 -15.303238 6.4947039e-16 1.5916264
0.13273518 -0.05 -0.053953493 -15.583305 9.7995387e-17 1.6882932
0.12950295 -0.05 -0.053621668 -15.874829 2.3550464e-16 1.7899001
0.12631859 -0.05 -0.053281818 -16.170212 8.141239e-16 1.8953227
0.12318145 -0.05 -0.052934137 -16.466098 3.3570935e-16 2.004446
0.12009091 -0.05 -0.052578762 -16.759805 -2.7379766e-16 2.1176765
0.11704634 -0.05 -0.05221572 -17.04777 -4.4155744e-16 2.2343557
0.11404716 -0.05 -0.0518451 -17.328438 -1.9056709e-16 2.3541772
0.11109276 -0.05 -0.051467045 -17.601374 2.2320717e-16 2.4773315
0.10818256 -0.05 -0.051081601 -17.864921 -2.4731829e-16 2.6036848
0.10531598 -0.05 -0.050688872 -18.118919 4.6664774e-16 2.7326639
0.10249244 -0.05 -0.050289026 -18.364096 7.4058986e-16 2.8653263
0.099711405 -0.05 -0.049882016 -18.598117 -1.6568533e-17 3.0018233
0.096972332 -0.05 -0.049467907 -18.820867 -2.4187303e-16 3.14079
0.094274671 -0.05 -0.049046851 -19.033537 4.1084786e-16 3.2834507
0.091617917 -0.05 -0.048618778 -19.233513 -4.5932117e-16 3.4290313
0.089001553 -0.05 -0.04818376 -19.420738 2.5396434e-16 3.577067
0.086425067 -0.05 -0.047741872 -19.59703 -7.3229369e-17 3.7284072
0.083887968 -0.05 -0.047293152 -19.762698 4.9706157e-16 3.8827855
0.08138977 -0.05 -0.04683765 -19.917747 -2.3777094e-16 4.0410961
0.078930021 -0.05 -0.046375268 -20.060052 -1.768245e-17 4.2022974
0.076508263 -0.05 -0.045906008 -20.189631 1.4592847e-16 4.3659445
0.074124033 -0.05 -0.04542995 -20.307895 -1.9684821e-16 4.5327362
0.071776884 -0.05 -0.044947121 -20.414627 -8.8053043e-16 4.7034317
0.069466412 -0.05 -0.044457415 -20.508027 3.3060734e-16 4.8772465
0.067192202 -0.05 -0.043960797 -20.588218 -6.0014255e-16 5.0539525
0.064953846 -0.05 -0.043457271 -20.655692 3.6389468e-16 5.234316
0.062750963 -0.05 -0.042946752 -20.709168 3.0415515e-16 5.4179458
0.060583182 -0.05 -0.04242916 -20.748297 1.794469e-16 5.6046488
0.058450142 -0.05 -0.04190444 -20.772837 6.4245491e-16 5.7945469
0.056351498 -0.05 -0.041372494 -20.782479 1.4721883e-16 5.9874387
0.0542869 -0.05 -0.040833295 -20.777827 -5.6313073e-16 6.1843584
0.052256054 -0.05 -0.040286658 -20.756354 2.9065755e-16 6.3843184
0.050258667 -0.05 -0.039732434 -20.718316 -1.8033769e-16 6.5869016
0.048294434 -0.05 -0.039170565 -20.66414 5.0978283e-16 6.7931167
0.0463631 -0.05 -0.03860087 -20.59303 -4.0086954e-16 7.0028714
0.044464424 -0.05 -0.038023167 -20.5039 4.3732362e-16 7.2161835
0.042598212 -0.05 -0.037437182 -20.394773 -9.0740257e-16 7.4316475
0.040764258 -0.05 -0.036842726 -20.266295 4.8640522e-16 7.6493463
0.038962364 -0.05 -0.03623965 -20.118496 -1.5610102e-16 7.870163
0.037192394 -0.05 -0.035627672 -19.949844 1.3146902e-15 8.093574
0.035454238 -0.05 -0.035006484 -19.759088 -4.2891737e-17 8.3189595
0.033747817 -0.05 -0.034375774 -19.545333 -4.7204664e-16 8.5457379
0.032073075 -0.05 -0.033735228 -19.308146 -2.6584771e-17 8.7739433
0.03043 -0.05 -0.033084493 -19.046055 8.0038435e-16 9.0029487
0.028818641 -0.05 -0.032423135 -18.756827 1.435425e-16 9.2311794
0.027239061 -0.05 -0.031750771 -18.440077 5.5575742e-16 9.4587209
0.025691402 -0.05 -0.031066916 -18.093635 -8.3908772e-16 9.6835704
0.024175865 -0.05 -0.030371047 -17.716495 -6.9447697e-16 9.9045996
0.022692704 -0.05 -0.029662652 -17.30715 4.0950261e-16 10.120391
0.02124229 -0.05 -0.028941096 -16.863717 -9.3487572e-17 10.328114
0.019825022 -0.05 -0.028205803 -16.385566 -1.2128886e-15 10.527186
0.018441463 -0.05 -0.027456036 -15.869613 -9.081928e-16 10.712498
0.017092261 -0.05 -0.026691028 -15.314411 -4.0823355e-16 10.881501
0.015778155 -0.05 -0.025910022 -14.71876 1.4169946e-16 11.03003
0.014500077 -0.05 -0.025112155 -14.080829 -3.6195205e-16 11.153473
0.013259135 -0.05 -0.024296549 -13.399624 8.0208952e-16 11.245704
0.012056636 -0.05 -0.023462286 -12.674349 -2.3581358e-16 11.30188
0.01089411 -0.05 -0.022608341 -11.903897 5.9013842e-17 11.313338
0.009773287 -0.05 -0.02173363 -11.088194 -9.0387239e-17 11.271843
0.0086962136 -0.05 -0.020837258 -10.227035 -7.0825652e-18 11.164366
0.0076653622 -0.05 -0.019918335 -9.325055 2.8981311e-16 10.983799
0.0066834427 -0.05 -0.018975721 -8.3897569 -3.2002476e-17 10.716855
0.0057534974 -0.05 -0.018008626 -7.42618 3.0368847e-16 10.356919
0.0048792548 -0.05 -0.017016808 -6.4444877 -2.2766646e-16 9.8872295
0.0040645765 -0.05 -0.015999809 -5.4627382 1.479994e-16 9.2883194
0.0033135529 -0.05 -0.014957723 -4.4997113 -4.6717424e-16 8.5605437
0.0026309495 -0.05 -0.013891769 -3.5791564 -2.6541266e-17 7.7074233
0.0020213706 -0.05 -0.01280332 -2.7254642 2.265514e-16 6.7362978
0.001489209 -0.05 -0.011694784 -1.9609469 1.910489e-16 5.6678059
0.001038476 -0.05 -0.010570113 -1.310612 8.9965654e-18 4.5352888
0.00067234486 -0.05 -0.0094336405 -0.80243823 -8.0762355e-18 3.3845687
0.00039268093 -0.05 -0.0082906333 -0.46666771 -1.040247e-16 2.2605135
0.00019969687 -0.05 -0.007147146 -0.27470035 -6.9366413e-17 1.2687498
9.2025876e-05 -0.05 -0.0060092743 -0.17654592 4.4055606e-18 0.56590261
0.99672645 -0.05 0.015810358 0.036784291 -1.441247e-16 -0.23136484
0.99053427 -0.05 0.01477945 0.0012743724 2.3954641e-18 -2.3729339e-05
0.98434093 -0.05 0.013755506 0.0049615435 -9.1460423e-16 0.00073261633
0.97814645 -0.05 0.0127385 -0.001918873 -1.0866485e-15 -0.0002296503
0.97195085 -0.05 0.011728325 0.002405086 -1.7998676e-16 0.00021634644
0.96575417 -0.05 0.010724824 0.0005330254 6.6128417e-16 7.1544776e-06
0.95955641 -0.05 0.0097280138 0.0016576971 -2.6761867e-16 0.00018296596
0.95335759 -0.05 0.0087378317 0.0012537707 3.0845996e-16 0.00010312665
0.94715773 -0.05 0.0077541235 0.0015794944 5.3758965e-17 0.00016390586
0.94095686 -0.05 0.006776805 0.0015507328 -4.8075663e-16 0.00013995721
0.934755 -0.05 0.0058058715 0.0016936719 -4.3644958e-16 0.00016729714
0.92855214 -0.05 0.0048412631 0.0017530454 -9.8851203e-16 0.00015857348
0.92234832 -0.05 0.0038829036 0.0018488463 1.5907224e-16 0.00017879253
0.91614354 -0.05 0.0029307584 0.0019163973 3.4650664e-16 0.00017169889
0.90993782 -0.05 0.001984677 0.0020117695 -3.6726891e-16 0.00019355406
0.90373119 -0.05 0.0010446619 0.0020832816 -2.0413113e-16 0.00018335901
0.89752365 -0.05 0.00011068202 0.0022088531 4.610714e-16 0.00020333199
0.89131523 -0.05 -0.00081739821 0.0022697809 2.4458268e-16 0.00020339777
0.88510592 -0.05 -0.0017395923 0.0023742432 -9.3382048e-17 0.00021939191
0.87889574 -0.05 -0.0026558435 0.0024702315 1.1513781e-16 0.0002215671
0.8726847 -0.05 -0.003566289 0.0025784665 2.4388418e-16 0.00023840754
0.86647283 -0.05 -0.0044709964 0.0026827901 1.8630993e-16 0.0002430848
0.86026011 -0.05 -0.0053699371 0.0028049172 -4.5935179e-16 0.00026005932
0.85404658 -0.05 -0.0062631973 0.0029194518 5.1442859e-16 0.00027349846
0.84783224 -0.05 -0.0071508393 0.0030906507 6.9667781e-16 0.00028079906
0.8416171 -0.05 -0.0080328493 0.0032008096 -2.147069e-16 0.00027824282
0.83540116 -0.05 -0.0089091909 0.003365352 -5.7486087e-16 0.00029589889
0.82918445 -0.05 -0.0097800391 0.0034849998 -1.297755e-16 0.00030316231
0.82296696 -0.05 -0.010645353 0.0036323954 1.6464541e-16 0.00031187409
0.81674871 -0.05 -0.011505088 0.0038419146 9.9498151e-16 0.0003086516
0.8105297 -0.05 -0.012359322 0.0041665043 5.6300668e-16 0.00031823644
0.80430992 -0.05 -0.013208065 0.004529587 2.2588089e-16 0.00031173393
0.79808941 -0.05 -0.014051348 0.0051511385 4.2177582e-16 0.00030703614
0.79186816 -0.05 -0.014889125 0.0071937839 -7.5526532e-16 0.00050763664
0.78564618 -0.05 -0.015721485 0.0078319151 -2.2465736e-16 0.00072608034
0.77942347 -0.05 -0.016548389 0.0078988872 -5.0595146e-16 0.00072643869
0.77320003 -0.05 -0.017369809 0.0078954035 2.3010368e-16 0.00071803027
0.76697587 -0.05 -0.018185805 0.0073125494 7.142e-16 0.00062665934
0.76075101 -0.05 -0.018996361 0.0074326447 1.0661479e-15 0.00061168617
0.75452545 -0.05 -0.019801468 0.007123 -2.2827401e-16 0.00056571142
0.74829917 -0.05 -0.020601098 0.0065470791 -5.6801779e-17 0.00048474356
0.74207219 -0.05 -0.021395234 0.0056642346 -2.0450819e-16 0.00035621431
0.73584452 -0.05 -0.022183865 0.0043283328 -5.5095103e-16 0.00016175553
0.72961614 -0.05 -0.022966951 0.0025078091 -7.2529537e-16 -7.6578437e-05
0.72338708 -0.05 -0.023744529 0.0001554509 -2.4101119e-16 -0.00037228658
0.71715733 -0.05 -0.024516625 -0.00281782 -2.1287773e-16 -0.00067318547
0.71092689 -0.05 -0.025283068 -0.0054312123 -4.6122765e-16 -0.0010010676
0.70469575 -0.05 -0.026043906 -0.00843374 6.3433903e-16 -0.0013697164
0.69846393 -0.05 -0.026799107 -0.012011531 -1.6043614e-16 -0.0018019677
0.69223142 -0.05 -0.027548575 -0.016165278 5.1722068e-16 -0.0022916423
0.68599823 -0.05 -0.02829237 -0.021029079 -5.3063809e-16 -0.0028565247
0.67976435 -0.05 -0.029030391 -0.026577142 -7.1012028e-16 -0.003490213
0.6735298 -0.05 -0.029762649 -0.032949348 3.7232771e-16 -0.0042038792
0.66729456 -0.05 -0.030489028 -0.040181876 -2.8479005e-16 -0.0049975999
0.66105862 -0.05 -0.031209427 -0.048411701 -5.1327833e-16 -0.0058810235
0.654822 -0.05 -0.031923931 -0.057938288 -4.0739575e-16 -0.0068803463
0.6485847 -0.05 -0.032632454 -0.068970029 -1.2308665e-16 -0.0080209015
0.64234671 -0.05 -0.033334829 -0.081458223 -2.1274165e-16 -0.0092948414
0.63610802 -0.05 -0.034031025 -0.0954325 -1.7317762e-16 -0.010705815
0.62986865 -0.05 -0.034721043 -0.11095715 2.807483e-16 -0.012248678
0.62362858 -0.05 -0.035404745 -0.12819297 -5.2760372e-16 -0.013941895
0.61738783 -0.05 -0.036082047 -0.1471041 -2.0554811e-16 -0.015766095
0.61114636 -0.05 -0.036752946 -0.16781416 -1.7594021e-16 -0.017738582
0.6049042 -0.05 -0.037417298 -0.19026753 5.8184795e-18 -0.019842419
0.59866135 -0.05 -0.03807503 -0.21493542 1.1047877e-15 -0.02219786
0.59241779 -0.05 -0.038726059 -0.24363133 1.1906431e-16 -0.024761561
0.58617352 -0.05 -0.039370293 -0.27478431 -1.3409983e-16 -0.027558292
0.57992855 -0.05 -0.040007616 -0.30827397 -5.5583195e-16 -0.030519452
0.57368285 -0.05 -0.040637885 -0.34425383 1.5749064e-17 -0.033648134
0.56743646 -0.05 -0.041261067 -0.3829833 -1.2450187e-16 -0.036936225
0.56118934 -0.05 -0.04187704 -0.4245989 -5.7283933e-16 -0.04041098
0.5549415 -0.05 -0.042485641 -0.46889676 2.3525448e-16 -0.044043754
0.54869294 -0.05 -0.043086799 -0.51623237 -2.7386468e-16 -0.047850011
0.54244366 -0.05 -0.043680352 -0.56670014 3.6281417e-16 -0.051800815
0.53619364 -0.05 -0.044266161 -0.62047833 1.2393293e-16 -0.055928961
0.5299429 -0.05 -0.044844155 -0.67760435 -1.3285427e-16 -0.060218729
0.52369142 -0.05 -0.045414161 -0.73820666 4.5270664e-16 -0.064664934
0.5174392 -0.05 -0.045976038 -0.80244029 1.7554002e-16 -0.069233529
0.51118624 -0.05 -0.046529618 -0.87081687 1.3339473e-16 -0.073977861
0.50493256 -0.05 -0.047074764 -0.9431554 3.2624609e-16 -0.078864187
0.49867813 -0.05 -0.047611351 -1.0195725 -8.7267387e-17 -0.083877451
0.49242294 -0.05 -0.048139182 -1.0999308 -9.5857717e-17 -0.088960731
0.48616701 -0.05 -0.048658054 -1.1852706 -5.8910142e-16 -0.094278547
0.47991034 -0.05 -0.049167841 -1.2807124 -2.8451608e-16 -0.10046708
0.47365292 -0.05 -0.049668407 -1.3943036 -6.63063e-17 -0.10763804
0.46739475 -0.05 -0.050159499 -1.5146112 -1.900611e-16 -0.11449197
0.46113582 -0.05 -0.050640904 -1.6379445 1.6854071e-16 -0.12107487
0.45487614 -0.05 -0.051112461 -1.7655938 1.093182e-16 -0.12696604
0.44861572 -0.05 -0.051573985 -1.8967651 2.6416861e-16 -0.13268346
0.44235455 -0.05 -0.052025249 -2.0330121 -1.6750281e-16 -0.13893061
0.43609264 -0.05 -0.052466013 -2.1749942 3.3278843e-16 -0.14504828
0.42982998 -0.05 -0.052896068 -2.3231039 3.5205331e-16 -0.15100649
0.42356658 -0.05 -0.053315214 -2.4772865 2.486902e-16 -0.1567872
0.41730244 -0.05 -0.053723201 -2.6370195 1.0940808e-16 -0.16224523
0.41103756 -0.05 -0.054119752 -2.8027265 7.3389235e-17 -0.16736185
0.40477197 -0.05 -0.054504641 -2.9750064 -1.8873508e-16 -0.17212116
0.39850565 -0.05 -0.054877584 -3.1536284 -1.9213459e-16 -0.17645689
0.39223861 -0.05 -0.055238271 -3.3376793 1.6316315e-16 -0.18028082
0.38597087 -0.05 -0.055586485 -3.52789 1.8652319e-16 -0.18355266
0.37970243 -0.05 -0.055921986 -3.7251543 -2.1484595e-16 -0.18619255
0.37343331 -0.05 -0.056244378 -3.928959 -3.5130202e-16 -0.18810973
0.36716351 -0.05 -0.056553337 -4.1383077 -2.3935315e-16 -0.18928735
0.36089305 -0.05 -0.056848622 -4.3540752 6.4728971e-17 -0.18959107
0.35462195 -0.05 -0.057129894 -4.5767246 -3.0753975e-16 -0.18893874
0.34835021 -0.05 -0.0573968 -4.8064983 -1.7023763e-17 -0.1872804
0.34207787 -0.05 -0.057648949 -5.0424988 -2.6115925e-16 -0.1845103
0.33580494 -0.05 -0.057886012 -5.2845108 9.2179246e-17 -0.18054768
0.32953145 -0.05 -0.058107597 -5.5329054 -2.9592035e-17 -0.17514997
0.32325741 -0.05 -0.058313279 -5.7879087 -9.3898532e-17 -0.16836506
0.31698287 -0.05 -0.058502669 -6.0497606 2.1194448e-16 -0.16011262
0.31070783 -0.05 -0.058675351 -6.3173085 1.1409477e-16 -0.15047308
0.30443235 -0.05 -0.058830888 -6.5571483 -8.6617608e-17 -0.13826861
0.29584347 -0.05 0.061016428 -7.0877696 1.2276395e-16 -0.16169539
0.29020788 -0.05 0.060880278 -6.920693 -1.8022505e-17 -0.17599614
0.28465379 -0.05 0.060731523 -6.7963307 -1.970587e-16 -0.19073401
0.27918005 -0.05 0.06057035 -6.6739551 -4.1119289e-17 -0.20514758
0.27378556 -0.05 0.060397002 -6.5588489 -1.6214407e-16 -0.2192245
0.2684692 -0.05 0.060211751 -6.4496544 -1.5206537e-16 -0.23310646
0.26322988 -0.05 0.060014851 -6.3465457 1.0584809e-16 -0.2467612
0.25806653 -0.05 0.059806521 -6.249346 1.869713e-16 -0.26029706
0.25297811 -0.05 0.059587028 -6.1581235 -4.1937412e-18 -0.27365643
0.24796356 -0.05 0.059356597 -6.0725596 1.6990579e-16 -0.2870838
0.24302186 -0.05 0.059115389 -5.9914512 -1.3137177e-17 -0.30036838
0.238152 -0.05 0.058863662 -5.9145043 4.5139624e-17 -0.31354197
0.23335298 -0.05 0.058601636 -5.8406911 1.7860252e-16 -0.32658361
0.22862382 -0.05 0.058329554 -5.7694802 2.7431022e-16 -0.33958377
0.22396353 -0.05 0.05804764 -5.7017352 2.6864963e-16 -0.35265644
0.21937119 -0.05 0.057756045 -5.6370599 3.0890637e-16 -0.36572559
0.21484585 -0.05 0.057455012 -5.5757399 -9.1170231e-17 -0.37874498
0.21038657 -0.05 0.057144745 -5.5179451 1.7708948e-16 -0.39195737
0.20599244 -0.05 0.056825357 -5.4627936 9.1636775e-17 -0.40514811
0.20166257 -0.05 0.056497096 -5.4106159 1.5753194e-17 -0.41836606
0.19739606 -0.05 0.056160156 -5.3614669 -5.5156063e-16 -0.43170366
0.19319205 -0.05 0.05581475 -5.3154247 -4.4375486e-16 -0.44513856
0.18904965 -0.05 0.055461063 -5.2727371 -1.4751916e-17 -0.45889632
0.18496804 -0.05 0.055099162 -5.2323156 -2.360221e-16 -0.47275829
0.18094638 -0.05 0.054729282 -5.1943203 -3.7121905e-16 -0.48668423
0.17698385 -0.05 0.054351596 -5.159029 5.4045829e-16 -0.50093247
0.17307962 -0.05 0.053966249 -5.1258483 1.1903259e-16 -0.51526795
0.1692329 -0.05 0.053573432 -5.0954746 2.7530632e-16 -0.52995141
0.1654429 -0.05 0.053173289 -5.067424 -2.1830655e-16 -0.54487913
0.16170884 -0.05 0.052765941 -5.041594 -6.1247575e-16 -0.56015535
0.15802997 -0.05 0.052351504 -5.0175264 2.0729406e-16 -0.57558715
0.15440553 -0.05 0.051930187 -4.9959889 2.0484247e-16 -0.5914062
0.15083479 -0.05 0.051502087 -4.9768772 -4.9507812e-17 -0.60767348
0.14731701 -0.05 0.051067332 -4.9599887 3.4665526e-16 -0.62424923
0.14385146 -0.05 0.050626054 -4.9456505 3.8867795e-17 -0.64140356
0.14043745 -0.05 0.050178333 -4.9330168 -1.8522657e-16 -0.65890897
0.13707428 -0.05 0.049724314 -4.9218703 -5.8215848e-16 -0.67675486
0.13376128 -0.05 0.049264097 -4.9121912 2.2155606e-16 -0.69496447
0.13049774 -0.05 0.048797836 -4.9045307 -1.2020786e-16 -0.71362185
0.12728302 -0.05 0.048325627 -4.8991174 -3.9321279e-16 -0.73305623
0.12411648 -0.05 0.047847483 -4.8950028 5.6875435e-18 -0.75293311
0.12099745 -0.05 0.047363573 -4.8931233 5.3040338e-16 -0.77343728
0.1179253 -0.05 0.046874004 -4.8939869 1.240601e-16 -0.79493661
0.11489942 -0.05 0.046378778 -4.8964072 -3.4239778e-16 -0.81711488
0.11191922 -0.05 0.045877955 -4.9000221 -3.5005305e-16 -0.83983773
0.10898407 -0.05 0.045371655 -4.9048261 9.7652431e-17 -0.8631989
0.10609341 -0.05 0.044859895 -4.9105049 1.6610765e-17 -0.88716679
0.10324665 -0.05 0.044342757 -4.9167249 -3.5356021e-16 -0.91159201
0.10044319 -0.05 0.043820381 -4.9251112 -4.8264607e-16 -0.9372649
0.097682507 -0.05 0.043292698 -4.9347578 -1.5717916e-16 -0.96381929
0.094964055 -0.05 0.04275975 -4.9452406 -5.776136e-16 -0.99093529
0.092287278 -0.05 0.042221666 -4.9572209 8.7608138e-17 -1.0192059
0.089651676 -0.05 0.04167835 -4.9694727 -6.1124369e-16 -1.0481746
0.087056728 -0.05 0.041129855 -4.9818484 -2.8034486e-16 -1.0776867
0.08450192 -0.05 0.040576232 -4.9964747 1.144256e-16 -1.1085523
0.08198676 -0.05 0.040017497 -5.0133016 1.6122479e-16 -1.140771
0.079510757 -0.05 0.03945368 -5.0334376 -7.1186723e-17 -1.1750119
0.077073467 -0.05 0.038884666 -5.0537503 -1.0195428e-16 -1.2101469
0.074674431 -0.05 0.038310432 -5.0731045 -3.6237459e-16 -1.2458413
0.072313183 -0.05 0.03773104 -5.0919456 -5.7960171e-16 -1.2824384
0.069989277 -0.05 0.037146497 -5.1115582 4.053499e-16 -1.3205742
0.067702312 -0.05 0.03655668 -5.1317347 -9.0863737e-16 -1.3601899
0.065451875 -0.05 0.035961538 -5.1535771 2.7402488e-16 -1.40172
0.063237558 -0.05 0.035361054 -5.1779679 -3.8778881e-16 -1.4456693
0.061058986 -0.05 0.034755126 -5.2033813 -4.2149346e-16 -1.4913978
0.058915792 -0.05 0.034143662 -5.2283843 6.5455226e-16 -1.5384609
0.056807614 -0.05 0.033526589 -5.252868 -5.0090205e-16 -1.5868035
0.054734115 -0.05 0.032903794 -5.277024 3.9505932e-16 -1.6367496
0.052694945 -0.05 0.032275234 -5.3021915 4.7683148e-16 -1.6896038
0.050689819 -0.05 0.031640713 -5.3280156 2.8863229e-16 -1.7451446
0.04871845 -0.05 0.031000069 -5.3513337 -6.1159794e-17 -1.801756
0.046780537 -0.05 0.030353229 -5.3730232 2.8633732e-16 -1.8603968
0.044875833 -0.05 0.029700004 -5.3934681 -3.5170263e-16 -1.9211476
0.043004104 -0.05 0.029040199 -5.4143684 -3.7032196e-16 -1.98558
0.041165168 -0.05 0.028373535 -5.4365247 -1.5018144e-18 -2.0542402
0.039358829 -0.05 0.027699809 -5.4601195 -3.8781038e-16 -2.1263659
0.037584895 -0.05 0.02701887 -5.4825101 2.030165e-16 -2.2019026
0.035843241 -0.05 0.026330424 -5.5033079 5.1111656e-16 -2.2804777
0.034133773 -0.05 0.025634165 -5.5194823 -1.4834809e-16 -2.3604962
0.032456425 -0.05 0.024929773 -5.5297448 3.0559198e-16 -2.4432638
0.030811154 -0.05 0.024216932 -5.5356294 -6.107238e-16 -2.5318699
0.029197963 -0.05 0.023495291 -5.5393289 3.6784719e-16 -2.6253329
0.02761692 -0.05 0.022764417 -5.5300049 -2.9386582e-16 -2.717052
0.026068104 -0.05 0.022023932 -5.5074516 -7.3484586e-16 -2.8072565
0.02455168 -0.05 0.021273355 -5.4808366 1.9856718e-16 -2.8998925
0.023067871 -0.05 0.020512175 -5.4581069 9.4560507e-16 -3.0006816
0.021616952 -0.05 0.01973989 -5.4363933 -1.2622409e-15 -3.1063728
0.020199322 -0.05 0.018955882 -5.3859439 8.3085627e-16 -3.1999108
0.018815405 -0.05 0.018159592 -5.2772813 8.2677302e-16 -3.2749113
0.017465794 -0.05 0.017350311 -5.1091379 -8.5651063e-16 -3.3318254
0.016151171 -0.05 0.016527297 -4.8861177 2.109167e-16 -3.377103
0.014872309 -0.05 0.015689828 -4.6519466 2.7544903e-16 -3.446209
0.013630172 -0.05 0.014837083 -4.4501904 -8.9312576e-17 -3.5723936
0.012425911 -0.05 0.013968232 -4.2871831 6.3556737e-16 -3.7772314
0.011260867 -0.05 0.013082415 -4.1440315 7.1279932e-16 -4.0594451
0.010136615 -0.05 0.012178676 -4.0333115 -5.1033413e-16 -4.4073338
0.0090549302 -0.05 0.011256004 -3.9871642 5.3610237e-16 -4.8053125
0.0080178966 -0.05 0.010313596 -4.0391584 4.7914562e-16 -5.2641795
0.0070280228 -0.05 0.0093506718 -4.0809799 4.3784566e-17 -5.6968309
0.0060880659 -0.05 0.0083662085 -4.0335087 2.6277314e-16 -6.02219
0.0052010995 -0.05 0.0073595496 -3.8643928 -1.5988489e-16 -6.2292405
0.0043708592 -0.05 0.0063306159 -3.5804235 -6.3718973e-18 -6.2990951
0.003601223 -0.05 0.0052791192 -3.1855904 -3.5820236e-16 -6.1907274
0.002896273 -0.05 0.0042053289 -2.7156633 3.5072339e-16 -5.9021952
0.0022607175 -0.05 0.0031106703 -2.2066665 -1.9297536e-16 -5.4568634
0.0016990963 -0.05 0.0019967186 -1.6944617 4.0966267e-16 -4.8419675
0.0012156935 -0.05 0.00086606859 -1.2082181 1.1877286e-16 -4.0778175
0.0008143445 -0.05 -0.00027715659 -0.78913084 -1.2997892e-16 -3.2078942
0.00049803085 -0.05 -0.0014284893 -0.48534822 -5.6258433e-17 -2.2642753
0.0002683869 -0.05 -0.0025825868 -0.29225083 -8.8096189e-17 -1.3047681
0.00012536157 -0.05 -0.0037333908 -0.18100775 3.6885166e-17 -0.63229539
6.732398e-05 -0.05 -0.0048748708 -0.15748008 -2.7655903e-18 -0.030879367
0.99670687 -0.05 0.016709496 -52.773481 -2.3683305e-15 6.31649
0.99047569 -0.05 0.017469883 -53.801069 6.3280503e-16 6.5681123
0.98424365 -0.05 0.018223261 -54.887045 9.165618e-17 6.5626896
0.97801076 -0.05 0.018969659 -54.177005 -2.1696988e-16 6.4409821
0.97177707 -0.05 0.019709183 -53.82748 -7.2407854e-16 6.3383906
0.96554258 -0.05 0.020441992 -53.361216 -8.3020738e-16 6.2267047
0.9593073 -0.05 0.02116807 -52.91337 -4.0223269e-16 6.116758
0.95307125 -0.05 0.021887479 -52.448926 2.5165051e-16 6.007838
0.94683445 -0.05 0.022600377 -51.980469 -1.6013507e-15 5.89976
0.94059692 -0.05 0.023306846 -51.505802 1.0239962e-15 5.7927406
0.93435866 -0.05 0.024006893 -51.025319 1.9563509e-15 5.6859389
0.9281197 -0.05 0.024700578 -50.539096 6.8637041e-17 5.5807401
0.92188004 -0.05 0.025387978 -50.046525 -5.0875176e-16 5.4758018
0.91563969 -0.05 0.026069127 -49.548048 -3.07038e-16 5.3722955
0.90939868 -0.05 0.026744179 -49.045317 -4.0144806e-16 5.2697445
0.90315701 -0.05 0.02741313 -48.539648 1.9330823e-15 5.1678022
0.8969147 -0.05 0.028076011 -48.032497 1.3698935e-16 5.067528
0.89067177 -0.05 0.02873296 -47.526501 2.3455026e-16 4.9687267
0.8844282 -0.05 0.02938399 -47.021476 2.6329228e-16 4.870829
0.87818401 -0.05 0.030029045 -46.517258 1.1115013e-15 4.774355
0.87193923 -0.05 0.030668261 -46.014461 4.2002346e-17 4.6800441
0.86569387 -0.05 0.031301709 -45.512833 4.3265768e-17 4.5864717
0.85944791 -0.05 0.03192936 -45.010209 1.6883426e-15 4.4943927
0.85320138 -0.05 0.032551299 -44.506258 1.5500328e-15 4.4035088
0.8469543 -0.05 0.033167591 -43.999347 9.6770608e-16 4.3134972
0.84070666 -0.05 0.033778221 -43.488681 2.9342776e-16 4.2238975
0.83445846 -0.05 0.034383153 -42.973185 -3.7871361e-16 4.1352058
0.82820974 -0.05 0.034982564 -42.455924 -2.0629314e-16 4.0479064
0.82196048 -0.05 0.035576412 -41.937742 1.0903357e-15 3.9604027
0.81571069 -0.05 0.036164652 -41.422075 5.5340688e-16 3.8748582
0.80946038 -0.05 0.036747363 -40.911164 9.4941896e-17 3.7903842
0.80320956 -0.05 0.037324556 -40.406367 -4.993752e-16 3.7078116
0.79695824 -0.05 0.037896262 -39.907037 4.2270092e-16 3.6263791
0.79070641 -0.05 0.038462436 -39.412854 -5.1745234e-16 3.5464977
0.7844541 -0.05 0.039023164 -38.923639 6.9879397e-16 3.4682426
0.77820129 -0.05 0.039578412 -38.436588 4.0117094e-16 3.3907392
0.77194799 -0.05 0.040128148 -37.947767 5.2478753e-16 3.3145113
0.76569423 -0.05 0.040672434 -37.455283 -5.4392631e-16 3.2387179
0.75943998 -0.05 0.041211255 -36.957274 1.8062743e-17 3.1632686
0.75318526 -0.05 0.0417446 -36.456126 -5.0849771e-16 3.0881694
0.74693008 -0.05 0.042272444 -35.954846 -5.661541e-16 3.0136832
0.74067445 -0.05 0.042794769 -35.458349 5.9932894e-17 2.9402861
0.73441834 -0.05 0.043311561 -34.969247 5.1548043e-16 2.8682381
0.72816178 -0.05 0.043822786 -34.487801 7.8572202e-16 2.7976213
0.72190477 -0.05 0.044328476 -34.013899 5.5769941e-16 2.7286713
0.71564732 -0.05 0.044828661 -33.545926 1.1717511e-16 2.6607336
0.70938942 -0.05 0.045323167 -33.078273 -1.1564353e-15 2.5933983
0.70313107 -0.05 0.045812044 -32.607741 -9.5362757e-16 2.5273512
0.69687229 -0.05 0.046295259 -32.128917 6.379934e-16 2.4606395
0.69061306 -0.05 0.046772718 -31.642223 -5.4180446e-17 2.394505
0.6843534 -0.05 0.047244477 -31.15331 -2.2161389e-17 2.3283832
0.6780933 -0.05 0.047710439 -30.670048 3.8472104e-17 2.2631876
0.67183279 -0.05 0.048170613 -30.197703 -9.581348e-17 2.1994122
0.66557184 -0.05 0.048624885 -29.735862 -4.3345036e-16 2.1366855
0.65931045 -0.05 0.049073152 -29.282578 -4.1499962e-16 2.0757727
0.65304864 -0.05 0.0495155 -28.83543 6.5443848e-17 2.016223
0.64678641 -0.05 0.049951843 -28.386817 -3.2849597e-16 1.9570183
0.64052376 -0.05 0.050382014 -27.929059 -5.3572132e-16 1.8980104
0.63426068 -0.05 0.050805981 -27.457239 4.5737452e-16 1.8388324
0.62799719 -0.05 0.051223745 -26.976067 -2.0992995e-16 1.7792908
0.62173327 -0.05 0.051635171 -26.496755 8.956806e-17 1.7198968
0.61546894 -0.05 0.052040172 -26.028864 -9.9231116e-16 1.6621076
0.6092042 -0.05 0.052438746 -25.571871 2.6526781e-16 1.6056077
0.60293904 -0.05 0.052830747 -25.124266 3.3809004e-16 1.5503472
0.59667346 -0.05 0.053216105 -24.683336 -4.1381302e-16 1.4965474
0.59040749 -0.05 0.053594736 -24.241759 2.9841919e-16 1.4435637
0.58414109 -0.05 0.053966548 -23.788281 -3.1992422e-16 1.3910339
0.57787429 -0.05 0.054331425 -23.313138 5.4114774e-16 1.3377695
0.57160708 -0.05 0.054689223 -22.816415 -3.7861504e-16 1.283815
0.56533948 -0.05 0.05503991 -22.314569 -2.2577007e-16 1.2298265
0.55907147 -0.05 0.055383362 -21.823434 3.7500259e-16 1.1767977
0.55280306 -0.05 0.055719418 -21.343387 -1.8570261e-16 1.1251927
0.54653426 -0.05 0.056048009 -20.875727 -1.6852395e-16 1.075377
0.54026506 -0.05 0.056368969 -20.418932 1.5029521e-16 1.0270735
0.53399546 -0.05 0.05668216 -19.967979 -4.1808241e-16 0.98039618
0.52772548 -0.05 0.056987513 -19.51207 4.7446566e-16 0.93454966
0.52145512 -0.05 0.057284853 -19.033351 -1.4287797e-17 0.88857121
0.51518437 -0.05 0.05757404 -18.525553 -4.523336e-16 0.84156807
0.50891325 -0.05 0.057854905 -18.019181 -5.2712087e-16 0.79444781
0.50264175 -0.05 0.058127312 -17.522253 7.2768987e-18 0.74824515
0.49636989 -0.05 0.058391135 -17.034882 2.2644277e-16 0.70335416
0.49009766 -0.05 0.058646178 -16.559656 -4.3120178e-16 0.65978041
0.48382508 -0.05 0.058892239 -16.091567 -1.4974887e-16 0.6175446
0.47755215 -0.05 0.059129191 -15.631395 -1.2467923e-16 0.57676822
0.47127887 -0.05 0.059356898 -15.178786 -1.9855175e-16 0.53716579
0.46500525 -0.05 0.059575108 -14.73283 1.8478076e-17 0.49871366
0.4587313 -0.05 0.059783608 -14.29248 2.2910417e-16 0.46151165
0.45245704 -0.05 0.059982235 -13.858048 9.2048685e-17 0.42551648
0.44618245 -0.05 0.060170806 -13.429977 1.3458931e-16 0.39068009
0.43990758 -0.05 0.060349094 -13.012264 -3.600365e-17 0.35703075
0.43363241 -0.05 0.060516861 -12.607469 -4.3161992e-16 0.3246455
0.42735696 -0.05 0.060673896 -12.218113 -7.9125579e-17 0.29360365
0.42108125 -0.05 0.06082 -11.844911 -1.0407176e-16 0.26387912
0.41480529 -0.05 0.060954923 -11.486098 1.6988793e-16 0.23527544
0.4085291 -0.05 0.06107839 -11.143578 8.472328e-17 0.20772725
0.40225269 -0.05 0.061190174 -10.820722 7.7492374e-17 0.18136627
0.39597607 -0.05 0.061289992 -10.517043 1.084938e-16 0.15612057
0.38969928 -0.05 0.061377533 -10.229082 2.0636563e-18 0.13205628
0.38342232 -0.05 0.061452584 -9.9537031 -2.7534862e-17 0.10904611
0.37714522 -0.05 0.061514904 -9.6903491 3.1210133e-17 0.086841842
0.370868 -0.05 0.061564095 -9.4370968 2.1465584e-17 0.064998353
0.3645907 -0.05 0.061599838 -9.1932509 1.9632516e-17 0.042521099
0.35831333 -0.05 0.061621891 -8.9586637 3.6149717e-18 0.020806375
0.35203593 -0.05 0.061629917 -8.7333206 -7.721527e-19 0.00034255338
0.34575852 -0.05 0.061623562 -8.5161588 -5.3410555e-18 -0.020079529
0.33948114 -0.05 0.061602439 -8.3069226 -3.1218158e-17 -0.040383761
0.33320384 -0.05 0.061566217 -8.1054857 2.8347532e-17 -0.058229136
0.32692665 -0.05 0.061514508 -7.9116841 -9.4957855e-18 -0.076207574
0.32064961 -0.05 0.061446888 -7.7245691 6.9478131e-17 -0.093934595
0.31437277 -0.05 0.061362969 -7.5439119 -9.3652157e-17 -0.11135867
0.30809617 -0.05 0.061262335 -7.3726012 -1.3741023e-16 -0.12838827
0.30181986 -0.05 0.061144554 -7.242547 1.008799e-16 -0.1450392
