# yPlus  FACE_DATA 448
# x y z  yPlus
0.29845606 -0.05 -0.058963034 22.394163
0.29281988 -0.05 -0.059072329 22.822803
0.28726457 -0.05 -0.059165484 23.124853
0.28178901 -0.05 -0.059242735 23.420364
0.27639208 -0.05 -0.059304373 23.707171
0.27107269 -0.05 -0.059350718 23.989764
0.26582977 -0.05 -0.05938207 24.266713
0.26066225 -0.05 -0.059398697 24.536752
0.2555691 -0.05 -0.059400911 24.799533
0.25054927 -0.05 -0.059388981 25.057631
0.24560176 -0.05 -0.059363113 25.309683
0.24072555 -0.05 -0.059323609 25.555786
0.23591968 -0.05 -0.059270732 25.794431
0.23118315 -0.05 -0.059204767 26.0244
0.22651503 -0.05 -0.059125981 26.246925
0.22191434 -0.05 -0.059034565 26.461595
0.21738018 -0.05 -0.058930805 26.66739
0.21291161 -0.05 -0.058814945 26.863411
0.20850775 -0.05 -0.058687136 27.047678
0.20416769 -0.05 -0.058547665 27.223004
0.19989056 -0.05 -0.058396765 27.391275
0.19567549 -0.05 -0.058234686 27.556969
0.19152163 -0.05 -0.058061651 27.726795
0.18742814 -0.05 -0.057877765 27.894633
0.18339419 -0.05 -0.057683297 28.056859
0.17941897 -0.05 -0.057478458 28.20714
0.17550167 -0.05 -0.057263427 28.338383
0.1716415 -0.05 -0.057038429 28.448122
0.16783767 -0.05 -0.056803643 28.539442
0.16408942 -0.05 -0.056559225 28.627588
0.16039601 -0.05 -0.05630532 28.728581
0.15675666 -0.05 -0.056042174 28.852534
0.15317066 -0.05 -0.055769914 28.987806
0.14963729 -0.05 -0.055488699 29.132959
0.14615581 -0.05 -0.055198694 29.287847
0.14272556 -0.05 -0.054900009 29.454571
0.13934581 -0.05 -0.054592818 29.638121
0.13601592 -0.05 -0.054277251 29.841752
0.13273518 -0.05 -0.053953493 30.060608
0.12950295 -0.05 -0.053621668 30.289448
0.12631859 -0.05 -0.053281818 30.520436
0.12318145 -0.05 -0.052934137 30.749959
0.12009091 -0.05 -0.052578762 30.976271
0.11704634 -0.05 -0.05221572 31.196082
0.11404716 -0.05 -0.0518451 31.407678
0.11109276 -0.05 -0.051467045 31.611323
0.10818256 -0.05 -0.051081601 31.806498
0.10531598 -0.05 -0.050688872 31.991388
0.10249244 -0.05 -0.050289026 32.167947
0.099711405 -0.05 -0.049882016 32.335798
0.096972332 -0.05 -0.049467907 32.492395
0.094274671 -0.05 -0.049046851 32.640404
0.091617917 -0.05 -0.048618778 32.779105
0.089001553 -0.05 -0.04818376 32.905494
0.086425067 -0.05 -0.047741872 33.024427
0.083887968 -0.05 -0.047293152 33.133541
0.08138977 -0.05 -0.04683765 33.235801
0.078930021 -0.05 -0.046375268 33.32878
0.076508263 -0.05 -0.045906008 33.411865
0.074124033 -0.05 -0.04542995 33.485885
0.071776884 -0.05 -0.044947121 33.552369
0.069466412 -0.05 -0.044457415 33.610424
0.067192202 -0.05 -0.043960797 33.658376
0.064953846 -0.05 -0.043457271 33.6984
0.062750963 -0.05 -0.042946752 33.729803
0.060583182 -0.05 -0.04242916 33.752022
0.058450142 -0.05 -0.04190444 33.764963
0.056351498 -0.05 -0.041372494 33.769488
0.0542869 -0.05 -0.040833295 33.764178
0.052256054 -0.05 -0.040286658 33.752614
0.050258667 -0.05 -0.039732434 33.728923
0.048294434 -0.05 -0.039170565 33.698424
0.0463631 -0.05 -0.03860087 33.65869
0.044464424 -0.05 -0.038023167 33.611427
0.042598212 -0.05 -0.037437182 33.555156
0.040764258 -0.05 -0.036842726 33.489229
0.038962364 -0.05 -0.03623965 33.414499
0.037192394 -0.05 -0.035627672 33.333296
0.035454238 -0.05 -0.035006484 33.242369
0.033747817 -0.05 -0.034375774 33.144322
0.032073075 -0.05 -0.033735228 33.036918
0.03043 -0.05 -0.033084493 32.923295
0.028818641 -0.05 -0.032423135 32.799945
0.027239061 -0.05 -0.031750771 32.667749
0.025691402 -0.05 -0.031066916 32.528251
0.024175865 -0.05 -0.030371047 32.379179
0.022692704 -0.05 -0.029662652 32.221394
0.02124229 -0.05 -0.028941096 32.055368
0.019825022 -0.05 -0.028205803 31.877324
0.018441463 -0.05 -0.027456036 31.692847
0.017092261 -0.05 -0.026691028 31.491602
0.015778155 -0.05 -0.025910022 31.279619
0.014500077 -0.05 -0.025112155 31.049216
0.013259135 -0.05 -0.024296549 30.801852
0.012056636 -0.05 -0.023462286 30.529324
0.01089411 -0.05 -0.022608341 30.231027
0.009773287 -0.05 -0.02173363 29.895745
0.0086962136 -0.05 -0.020837258 29.511564
0.0076653622 -0.05 -0.019918335 29.069534
0.0066834427 -0.05 -0.018975721 28.559399
0.0057534974 -0.05 -0.018008626 27.955454
0.0048792548 -0.05 -0.017016808 27.23807
0.0040645765 -0.05 -0.015999809 26.366551
0.0033135529 -0.05 -0.014957723 25.311992
0.0026309495 -0.05 -0.013891769 24.042334
0.0020213706 -0.05 -0.01280332 22.51735
0.001489209 -0.05 -0.011694784 20.695503
0.001038476 -0.05 -0.010570113 18.546183
0.00067234486 -0.05 -0.0094336405 16.047932
0.00039268093 -0.05 -0.0082906333 13.126609
0.00019969687 -0.05 -0.007147146 9.8263509
9.2025876e-05 -0.05 -0.0060092743 6.5605634
0.99672645 -0.05 0.015810358 3.9870133
0.99053427 -0.05 0.01477945 0.30075225
0.98434093 -0.05 0.013755506 0.61006703
0.97814645 -0.05 0.0127385 0.37828699
0.97195085 -0.05 0.011728325 0.42262736
0.96575417 -0.05 0.010724824 0.19815148
0.95955641 -0.05 0.0097280138 0.35106373
0.95335759 -0.05 0.0087378317 0.30510489
0.94715773 -0.05 0.0077541235 0.34243449
0.94095686 -0.05 0.006776805 0.33941865
0.934755 -0.05 0.0058058715 0.35423858
0.92855214 -0.05 0.0048412631 0.36067392
0.92234832 -0.05 0.0038829036 0.36986327
0.91614354 -0.05 0.0029307584 0.37723323
0.90993782 -0.05 0.001984677 0.38606418
0.90373119 -0.05 0.0010446619 0.39338316
0.89752365 -0.05 0.00011068202 0.40456501
0.89131523 -0.05 -0.00081739821 0.41036419
0.88510592 -0.05 -0.0017395923 0.41920633
0.87889574 -0.05 -0.0026558435 0.42781126
0.8726847 -0.05 -0.003566289 0.43678426
0.86647283 -0.05 -0.0044709964 0.44600171
0.86026011 -0.05 -0.0053699371 0.45571474
0.85404658 -0.05 -0.0062631973 0.46552674
0.84783224 -0.05 -0.0071508393 0.47858382
0.8416171 -0.05 -0.0080328493 0.48711438
0.83540116 -0.05 -0.0089091909 0.49911904
0.82918445 -0.05 -0.0097800391 0.50806991
0.82296696 -0.05 -0.010645353 0.51850912
0.81674871 -0.05 -0.011505088 0.53353673
0.8105297 -0.05 -0.012359322 0.55525945
0.80430992 -0.05 -0.013208065 0.57909576
0.79808941 -0.05 -0.014051348 0.61705059
0.79186816 -0.05 -0.014889125 0.72961993
0.78564618 -0.05 -0.015721485 0.76198084
0.77942347 -0.05 -0.016548389 0.7652975
0.77320003 -0.05 -0.017369809 0.76508162
0.76697587 -0.05 -0.018185805 0.73630835
0.76075101 -0.05 -0.018996361 0.74209482
0.75452545 -0.05 -0.019801468 0.72660023
0.74829917 -0.05 -0.020601098 0.69643204
0.74207219 -0.05 -0.021395234 0.64748585
0.73584452 -0.05 -0.022183865 0.56538667
0.72961614 -0.05 -0.022966951 0.42960289
0.72338708 -0.05 -0.023744529 0.15288876
0.71715733 -0.05 -0.024516625 0.46228176
0.71092689 -0.05 -0.025283068 0.63890155
0.70469575 -0.05 -0.026043906 0.79492458
0.69846393 -0.05 -0.026799107 0.94791575
0.69223142 -0.05 -0.027548575 1.0991719
0.68599823 -0.05 -0.02829237 1.2532676
0.67976435 -0.05 -0.029030391 1.4086738
0.6735298 -0.05 -0.029762649 1.5682181
0.66729456 -0.05 -0.030489028 1.7317046
0.66105862 -0.05 -0.031209427 1.9005873
0.654822 -0.05 -0.031923931 2.0791244
0.6485847 -0.05 -0.032632454 2.2682233
0.64234671 -0.05 -0.033334829 2.4650484
0.63610802 -0.05 -0.034031025 2.6680428
0.62986865 -0.05 -0.034721043 2.8769898
0.62362858 -0.05 -0.035404745 3.0922601
0.61738783 -0.05 -0.036082047 3.3126704
0.61114636 -0.05 -0.036752946 3.5381347
0.6049042 -0.05 -0.037417298 3.767501
0.59866135 -0.05 -0.03807503 4.0041778
0.59241779 -0.05 -0.038726059 4.2633076
0.58617352 -0.05 -0.039370293 4.5276612
0.57992855 -0.05 -0.040007616 4.7958118
0.57368285 -0.05 -0.040637885 5.0678078
0.56743646 -0.05 -0.041261067 5.3454883
0.56118934 -0.05 -0.04187704 5.6283038
0.5549415 -0.05 -0.042485641 5.9146928
0.54869294 -0.05 -0.043086799 6.205881
0.54244366 -0.05 -0.043680352 6.5024935
0.53619364 -0.05 -0.044266161 6.8039953
0.5299429 -0.05 -0.044844155 7.1104173
0.52369142 -0.05 -0.045414161 7.4214039
0.5174392 -0.05 -0.045976038 7.7377571
0.51118624 -0.05 -0.046529618 8.0605295
0.50493256 -0.05 -0.047074764 8.3886134
0.49867813 -0.05 -0.047611351 8.7215627
0.49242294 -0.05 -0.048139182 9.0588337
0.48616701 -0.05 -0.048658054 9.4034423
0.47991034 -0.05 -0.049167841 9.774615
0.47365292 -0.05 -0.049668407 10.198599
0.46739475 -0.05 -0.050159499 10.629444
0.46113582 -0.05 -0.050640904 11.05336
0.45487614 -0.05 -0.051112461 11.475604
0.44861572 -0.05 -0.051573985 11.893556
0.44235455 -0.05 -0.052025249 12.313091
0.43609264 -0.05 -0.052466013 12.735244
0.42982998 -0.05 -0.052896068 13.161232
0.42356658 -0.05 -0.053315214 13.590228
0.41730244 -0.05 -0.053723201 14.021217
0.41103756 -0.05 -0.054119752 14.454305
0.40477197 -0.05 -0.054504641 14.891395
0.39850565 -0.05 -0.054877584 15.331228
0.39223861 -0.05 -0.055238271 15.771842
0.38597087 -0.05 -0.055586485 16.214283
0.37970243 -0.05 -0.055921986 16.660864
0.37343331 -0.05 -0.056244378 17.109676
0.36716351 -0.05 -0.056553337 17.559061
0.36089305 -0.05 -0.056848622 18.010049
0.35462195 -0.05 -0.057129894 18.464066
0.34835021 -0.05 -0.0573968 18.920836
0.34207787 -0.05 -0.057648949 19.379058
0.33580494 -0.05 -0.057886012 19.837446
0.32953145 -0.05 -0.058107597 20.297288
0.32325741 -0.05 -0.058313279 20.758445
0.31698287 -0.05 -0.058502669 21.221978
0.31070783 -0.05 -0.058675351 21.685183
0.30443235 -0.05 -0.058830888 22.029567
0.29584347 -0.05 0.061016428 22.981249
0.29020788 -0.05 0.060880278 22.548664
0.28465379 -0.05 0.060731523 22.243315
0.27918005 -0.05 0.06057035 21.943146
0.27378556 -0.05 0.060397002 21.657941
0.2684692 -0.05 0.060211751 21.38486
0.26322988 -0.05 0.060014851 21.124626
0.25806653 -0.05 0.059806521 20.876131
0.25297811 -0.05 0.059587028 20.640463
0.24796356 -0.05 0.059356597 20.416672
0.24302186 -0.05 0.059115389 20.20296
0.238152 -0.05 0.058863662 19.998076
0.23335298 -0.05 0.058601636 19.801168
0.22862382 -0.05 0.058329554 19.610858
0.22396353 -0.05 0.05804764 19.428724
0.21937119 -0.05 0.057756045 19.253792
0.21484585 -0.05 0.057455012 19.086622
0.21038657 -0.05 0.057144745 18.927543
0.20599244 -0.05 0.056825357 18.774983
0.20166257 -0.05 0.056497096 18.629294
0.19739606 -0.05 0.056160156 18.490766
0.19319205 -0.05 0.05581475 18.359305
0.18904965 -0.05 0.055461063 18.235501
0.18496804 -0.05 0.055099162 18.117335
0.18094638 -0.05 0.054729282 18.004987
0.17698385 -0.05 0.054351596 17.899092
0.17307962 -0.05 0.053966249 17.798272
0.1692329 -0.05 0.053573432 17.703921
0.1654429 -0.05 0.053173289 17.614992
0.16170884 -0.05 0.052765941 17.531506
0.15802997 -0.05 0.052351504 17.45243
0.15440553 -0.05 0.051930187 17.378881
0.15083479 -0.05 0.051502087 17.311246
0.14731701 -0.05 0.051067332 17.248443
0.14385146 -0.05 0.050626054 17.191665
0.14043745 -0.05 0.050178333 17.138883
0.13707428 -0.05 0.049724314 17.090016
0.13376128 -0.05 0.049264097 17.044496
0.13049774 -0.05 0.048797836 17.003514
0.12728302 -0.05 0.048325627 16.967653
0.12411648 -0.05 0.047847483 16.935342
0.12099745 -0.05 0.047363573 16.907215
0.1179253 -0.05 0.046874004 16.885109
0.11489942 -0.05 0.046378778 16.866578
0.11191922 -0.05 0.045877955 16.850981
0.10898407 -0.05 0.045371655 16.837708
0.10609341 -0.05 0.044859895 16.827478
0.10324665 -0.05 0.044342757 16.818235
0.10044319 -0.05 0.043820381 16.813713
0.097682507 -0.05 0.043292698 16.812373
0.094964055 -0.05 0.04275975 16.812659
0.092287278 -0.05 0.042221666 16.816218
0.089651676 -0.05 0.04167835 16.821686
0.087056728 -0.05 0.041129855 16.827076
0.08450192 -0.05 0.040576232 16.837644
0.08198676 -0.05 0.040017497 16.851763
0.079510757 -0.05 0.03945368 16.872806
0.077073467 -0.05 0.038884666 16.894731
0.074674431 -0.05 0.038310432 16.915493
0.072313183 -0.05 0.03773104 16.935408
0.069989277 -0.05 0.037146497 16.957743
0.067702312 -0.05 0.03655668 16.982099
0.065451875 -0.05 0.035961538 17.009708
0.063237558 -0.05 0.035361054 17.042454
0.061058986 -0.05 0.034755126 17.078253
0.058915792 -0.05 0.034143662 17.114191
0.056807614 -0.05 0.033526589 17.150366
0.054734115 -0.05 0.032903794 17.187281
0.052694945 -0.05 0.032275234 17.226935
0.050689819 -0.05 0.031640713 17.270974
0.04871845 -0.05 0.031000069 17.31131
0.046780537 -0.05 0.030353229 17.351611
0.044875833 -0.05 0.029700004 17.392089
0.043004104 -0.05 0.029040199 17.437037
0.041165168 -0.05 0.028373535 17.488005
0.039358829 -0.05 0.027699809 17.543687
0.037584895 -0.05 0.02701887 17.601354
0.035843241 -0.05 0.026330424 17.661457
0.034133773 -0.05 0.025634165 17.718739
0.032456425 -0.05 0.024929773 17.773564
0.030811154 -0.05 0.024216932 17.829251
0.029197963 -0.05 0.023495291 17.889852
0.02761692 -0.05 0.022764417 17.937502
0.026068104 -0.05 0.022023932 17.972364
0.02455168 -0.05 0.021273355 18.011783
0.023067871 -0.05 0.020512175 18.068957
0.021616952 -0.05 0.01973989 18.139702
0.020199322 -0.05 0.018955882 18.176048
0.018815405 -0.05 0.018159592 18.136138
0.017465794 -0.05 0.017350311 18.022886
0.016151171 -0.05 0.016527297 17.84201
0.014872309 -0.05 0.015689828 17.682492
0.013630172 -0.05 0.014837083 17.632019
0.012425911 -0.05 0.013968232 17.731572
0.011260867 -0.05 0.013082415 17.96395
0.010136615 -0.05 0.012178676 18.340042
0.0090549302 -0.05 0.011256004 18.874932
0.0080178966 -0.05 0.010313596 19.613562
0.0070280228 -0.05 0.0093506718 20.347657
0.0060880659 -0.05 0.0083662085 20.920789
0.0052010995 -0.05 0.0073595496 21.286593
0.0043708592 -0.05 0.0063306159 21.427922
0.003601223 -0.05 0.0052791192 21.278622
0.002896273 -0.05 0.0042053289 20.829533
0.0022607175 -0.05 0.0031106703 20.087816
0.0016990963 -0.05 0.0019967186 18.990612
0.0012156935 -0.05 0.00086606859 17.489465
0.0008143445 -0.05 -0.00027715659 15.564457
0.00049803085 -0.05 -0.0014284893 13.117484
0.0002683869 -0.05 -0.0025825868 9.9775209
0.00012536157 -0.05 -0.0037333908 6.9530067
6.732398e-05 -0.05 -0.0048748708 2.5553629
0.99670687 -0.05 0.016709496 56.706106
0.99047569 -0.05 0.017469883 63.205472
0.98424365 -0.05 0.018223261 63.802367
0.97801076 -0.05 0.018969659 63.388153
0.97177707 -0.05 0.019709183 63.185407
0.96554258 -0.05 0.020441992 62.910524
0.9593073 -0.05 0.02116807 62.646459
0.95307125 -0.05 0.021887479 62.370554
0.94683445 -0.05 0.022600377 62.091483
0.94059692 -0.05 0.023306846 61.807343
0.93435866 -0.05 0.024006893 61.518463
0.9281197 -0.05 0.024700578 61.224446
0.92188004 -0.05 0.025387978 60.925593
0.91563969 -0.05 0.026069127 60.621537
0.90939868 -0.05 0.026744179 60.312967
0.90315701 -0.05 0.02741313 60.001291
0.8969147 -0.05 0.028076011 59.686714
0.89067177 -0.05 0.02873296 59.371175
0.8844282 -0.05 0.02938399 59.054975
0.87818401 -0.05 0.030029045 58.737895
0.87193923 -0.05 0.030668261 58.419296
0.86569387 -0.05 0.031301709 58.099959
0.85944791 -0.05 0.03192936 57.778154
0.85320138 -0.05 0.032551299 57.453924
0.8469543 -0.05 0.033167591 57.125659
0.84070666 -0.05 0.033778221 56.793069
0.83445846 -0.05 0.034383153 56.455566
0.82820974 -0.05 0.034982564 56.114549
0.82196048 -0.05 0.035576412 55.771265
0.81571069 -0.05 0.036164652 55.427145
0.80946038 -0.05 0.036747363 55.084074
0.80320956 -0.05 0.037324556 54.743041
0.79695824 -0.05 0.037896262 54.403628
0.79070641 -0.05 0.038462436 54.065677
0.7844541 -0.05 0.039023164 53.728822
0.77820129 -0.05 0.039578412 53.39176
0.77194799 -0.05 0.040128148 53.051178
0.76569423 -0.05 0.040672434 52.705943
0.75943998 -0.05 0.041211255 52.354274
0.75318526 -0.05 0.0417446 51.998172
0.74693008 -0.05 0.042272444 51.639564
0.74067445 -0.05 0.042794769 51.281695
0.73441834 -0.05 0.043311561 50.926737
0.72816178 -0.05 0.043822786 50.575127
0.72190477 -0.05 0.044328476 50.226347
0.71564732 -0.05 0.044828661 49.879689
0.70938942 -0.05 0.045323167 49.531104
0.70313107 -0.05 0.045812044 49.177614
0.69687229 -0.05 0.046295259 48.815436
0.69061306 -0.05 0.046772718 48.444349
0.6843534 -0.05 0.047244477 48.068707
0.6780933 -0.05 0.047710439 47.694583
0.67183279 -0.05 0.048170613 47.325846
0.66557184 -0.05 0.048624885 46.962803
0.65931045 -0.05 0.049073152 46.603413
0.65304864 -0.05 0.0495155 46.246308
0.64678641 -0.05 0.049951843 45.885283
0.64052376 -0.05 0.050382014 45.51425
0.63426068 -0.05 0.050805981 45.128543
0.62799719 -0.05 0.051223745 44.731548
0.62173327 -0.05 0.051635171 44.33257
0.61546894 -0.05 0.052040172 43.939728
0.6092042 -0.05 0.052438746 43.552478
0.60293904 -0.05 0.052830747 43.169868
0.59667346 -0.05 0.053216105 42.789499
0.59040749 -0.05 0.053594736 42.405512
0.58414109 -0.05 0.053966548 42.007502
0.57787429 -0.05 0.054331425 41.58652
0.57160708 -0.05 0.054689223 41.1416
0.56533948 -0.05 0.05503991 40.687174
0.55907147 -0.05 0.055383362 40.237265
0.55280306 -0.05 0.055719418 39.792783
0.54653426 -0.05 0.056048009 39.354795
0.54026506 -0.05 0.056368969 38.922446
0.53399546 -0.05 0.05668216 38.490849
0.52772548 -0.05 0.056987513 38.04972
0.52145512 -0.05 0.057284853 37.58094
0.51518437 -0.05 0.05757404 37.077406
0.50891325 -0.05 0.057854905 36.567872
0.50264175 -0.05 0.058127312 36.061007
0.49636989 -0.05 0.058391135 35.556887
0.49009766 -0.05 0.058646178 35.058396
0.48382508 -0.05 0.058892239 34.560201
0.47755215 -0.05 0.059129191 34.063544
0.47127887 -0.05 0.059356898 33.567858
0.46500525 -0.05 0.059575108 33.072429
0.4587313 -0.05 0.059783608 32.575304
0.45245704 -0.05 0.059982235 32.077467
0.44618245 -0.05 0.060170806 31.579234
0.43990758 -0.05 0.060349094 31.085566
0.43363241 -0.05 0.060516861 30.599197
0.42735696 -0.05 0.060673896 30.124344
0.42108125 -0.05 0.06082 29.662008
0.41480529 -0.05 0.060954923 29.210907
0.4085291 -0.05 0.06107839 28.773006
0.40225269 -0.05 0.061190174 28.354493
0.39597607 -0.05 0.061289992 27.95495
0.38969928 -0.05 0.061377533 27.571114
0.38342232 -0.05 0.061452584 27.198469
0.37714522 -0.05 0.061514904 26.837845
0.370868 -0.05 0.061564095 26.486058
0.3645907 -0.05 0.061599838 26.143235
0.35831333 -0.05 0.061621891 25.808046
0.35203593 -0.05 0.061629917 25.482597
0.34575852 -0.05 0.061623562 25.164503
0.33948114 -0.05 0.061602439 24.85453
0.33320384 -0.05 0.061566217 24.551708
0.32692665 -0.05 0.061514508 24.257305
0.32064961 -0.05 0.061446888 23.969454
0.31437277 -0.05 0.061362969 23.688297
0.30809617 -0.05 0.061262335 23.418321
0.30181986 -0.05 0.061144554 23.275929
