# p  FACE_DATA 448
# x y z  p
0.2960265 -0.05 -0.060878482 99596.919
0.29039053 -0.05 -0.060759256 99592.439
0.28483601 -0.05 -0.060627182 99588.662
0.27936182 -0.05 -0.060482448 99585.004
0.27396683 -0.05 -0.0603253 99581.399
0.26864993 -0.05 -0.060156016 99577.933
0.26341004 -0.05 -0.05997485 99574.569
0.2582461 -0.05 -0.059782027 99571.478
0.25315704 -0.05 -0.059577816 99568.427
0.24814182 -0.05 -0.059362445 99565.601
0.24319942 -0.05 -0.059136079 99562.829
0.23832882 -0.05 -0.058898977 99560.205
0.23352904 -0.05 -0.058651364 99557.771
0.22879908 -0.05 -0.058393486 99555.491
0.22413798 -0.05 -0.058125568 99553.355
0.21954478 -0.05 -0.057847764 99551.415
0.21501854 -0.05 -0.057560322 99549.398
0.21055835 -0.05 -0.057263448 99547.586
0.20616329 -0.05 -0.056957259 99546.008
0.20183245 -0.05 -0.056642002 99544.558
0.19756494 -0.05 -0.056317877 99543.315
0.19335991 -0.05 -0.055985097 99542.117
0.18921647 -0.05 -0.055643851 99541.072
0.1851338 -0.05 -0.055294209 99540.31
0.18111104 -0.05 -0.054936407 99539.624
0.17714739 -0.05 -0.054570623 99539.207
0.17324202 -0.05 -0.054197003 99538.781
0.16939414 -0.05 -0.053815739 99538.404
0.16560296 -0.05 -0.053426979 99538.043
0.1618677 -0.05 -0.053030847 99538.013
0.1581876 -0.05 -0.052627461 99538.18
0.15456192 -0.05 -0.052217029 99538.448
0.1509899 -0.05 -0.051799654 99538.961
0.14747083 -0.05 -0.051375464 99539.576
0.14400397 -0.05 -0.050944596 99540.48
0.14058864 -0.05 -0.05050713 99541.652
0.13722412 -0.05 -0.050063213 99543.04
0.13390974 -0.05 -0.049612947 99544.69
0.13064482 -0.05 -0.049156489 99546.369
0.1274287 -0.05 -0.048693936 99548.355
0.12426073 -0.05 -0.048225304 99550.615
0.12114027 -0.05 -0.047750762 99552.898
0.11806666 -0.05 -0.047270421 99555.375
0.11503931 -0.05 -0.046784284 99558.119
0.11205761 -0.05 -0.046292414 99561.13
0.10912097 -0.05 -0.04579493 99564.304
0.10622877 -0.05 -0.045291853 99567.916
0.10338047 -0.05 -0.044783266 99571.582
0.10057546 -0.05 -0.044269312 99575.392
0.097813204 -0.05 -0.043749923 99579.694
0.095093164 -0.05 -0.043225141 99584.088
0.092414784 -0.05 -0.042695097 99588.658
0.089777563 -0.05 -0.042159698 99593.804
0.087180979 -0.05 -0.041618998 99599.034
0.084624519 -0.05 -0.04107305 99604.733
0.082107692 -0.05 -0.040521871 99610.463
0.079630007 -0.05 -0.039965492 99616.578
0.077191019 -0.05 -0.0394038 99623.191
0.074790271 -0.05 -0.038836773 99630.238
0.072427293 -0.05 -0.038264474 99637.466
0.070101643 -0.05 -0.037686913 99644.99
0.067812916 -0.05 -0.037103967 99652.985
0.065560702 -0.05 -0.036515585 99661.335
0.063344592 -0.05 -0.035921754 99670.211
0.06116421 -0.05 -0.035322372 99679.603
0.059019189 -0.05 -0.034717347 99689.506
0.056909167 -0.05 -0.034106606 99699.932
0.054833807 -0.05 -0.033490041 99710.94
0.05279276 -0.05 -0.032867608 99722.283
0.050785737 -0.05 -0.032239111 99734.624
0.048812453 -0.05 -0.03160439 99747.428
0.046872606 -0.05 -0.030963373 99760.965
0.044965948 -0.05 -0.03031587 99775.114
0.043092247 -0.05 -0.02966169 99790.13
0.041251318 -0.05 -0.029000551 99806.157
0.039442964 -0.05 -0.028332254 99823.12
0.037666993 -0.05 -0.027656644 99840.928
0.035923279 -0.05 -0.026973432 99859.873
0.034211728 -0.05 -0.026282308 99879.968
0.032532272 -0.05 -0.025582957 99901.393
0.030884867 -0.05 -0.024875061 99924.064
0.029269516 -0.05 -0.024158267 99948.27
0.027686285 -0.05 -0.023432145 99974.098
0.026135254 -0.05 -0.022696314 100001.55
0.024616582 -0.05 -0.021950295 100030.98
0.023130494 -0.05 -0.021193574 100062.41
0.021677262 -0.05 -0.02042565 100096.07
0.020257285 -0.05 -0.019645902 100132.28
0.018870982 -0.05 -0.018853772 100170.94
0.017518947 -0.05 -0.018048547 100212.81
0.016201858 -0.05 -0.017229485 100257.6
0.014920487 -0.05 -0.01639586 100305.84
0.013675795 -0.05 -0.015546849 100357.95
0.012468929 -0.05 -0.014681619 100414.7
0.01130123 -0.05 -0.013799304 100475.69
0.01017427 -0.05 -0.012898945 100540.97
0.0090898191 -0.05 -0.011979527 100611.39
0.0080499601 -0.05 -0.011040237 100686.68
0.0070571991 -0.05 -0.01008029 100766.92
0.0061142899 -0.05 -0.0090986536 100852.63
0.0052243046 -0.05 -0.0080946629 100942.74
0.0043909781 -0.05 -0.0070682271 101036.47
0.0036181876 -0.05 -0.0060190463 101132.26
0.0029100161 -0.05 -0.0049473779 101227.96
0.0022711761 -0.05 -0.0038546328 101320.85
0.0017062122 -0.05 -0.0027423728 101405.84
0.0012194161 -0.05 -0.0016131796 101478.31
0.0008146358 -0.05 -0.00047116484 101536.36
0.00049486606 -0.05 0.0006792128 101573.37
0.00026175732 -0.05 0.0018326155 101585.48
0.0001152767 -0.05 0.0029829848 101572.12
5.3811434e-05 -0.05 0.0041242853 101531.47
0.99675369 -0.05 -0.014467014 100032.95
0.99052482 -0.05 -0.015246108 100066.19
0.98429506 -0.05 -0.016018199 100045.18
0.97806445 -0.05 -0.016783312 100052.17
0.971833 -0.05 -0.017541552 100045.85
0.96560074 -0.05 -0.018293081 100044.98
0.95936767 -0.05 -0.01903788 100041.52
0.95313381 -0.05 -0.019776014 100038.99
0.94689918 -0.05 -0.020507638 100035.89
0.9406638 -0.05 -0.021232836 100032.92
0.93442767 -0.05 -0.021951614 100029.76
0.92819082 -0.05 -0.022664031 100026.59
0.92195324 -0.05 -0.023370165 100023.3
0.91571497 -0.05 -0.024070053 100020.01
0.90947602 -0.05 -0.024763843 100016.62
0.90323638 -0.05 -0.025451534 100013.22
0.89699609 -0.05 -0.026133159 100009.73
0.89075516 -0.05 -0.026808853 100006.25
0.88451358 -0.05 -0.02747863 100002.68
0.87827136 -0.05 -0.028142433 99999.113
0.87202853 -0.05 -0.028800401 99995.469
0.86578509 -0.05 -0.029452601 99991.853
0.85954105 -0.05 -0.030099006 99988.168
0.85329642 -0.05 -0.030739701 99984.491
0.84705121 -0.05 -0.03137475 99980.76
0.84080543 -0.05 -0.03200414 99977.044
0.83455908 -0.05 -0.032627833 99973.296
0.82831218 -0.05 -0.033246006 99969.54
0.82206473 -0.05 -0.033858618 99965.764
0.81581675 -0.05 -0.034465624 99962.007
0.80956821 -0.05 -0.035067103 99958.22
0.80331915 -0.05 -0.035663065 99954.43
0.79706958 -0.05 -0.036253542 99950.616
0.79081948 -0.05 -0.036838487 99946.815
0.78456888 -0.05 -0.037417989 99942.987
0.77831777 -0.05 -0.037992012 99939.174
0.77206615 -0.05 -0.038560524 99935.332
0.76581404 -0.05 -0.039123588 99931.511
0.75956144 -0.05 -0.039681188 99927.665
0.75330836 -0.05 -0.040233315 99923.822
0.74705479 -0.05 -0.040779941 99919.961
0.74080075 -0.05 -0.041321049 99916.108
0.73454622 -0.05 -0.041856628 99912.245
0.72829123 -0.05 -0.042386638 99908.384
0.72203577 -0.05 -0.042911116 99904.497
0.71577985 -0.05 -0.043430091 99900.625
0.70952346 -0.05 -0.043943387 99896.749
0.70326661 -0.05 -0.044451057 99892.835
0.69700929 -0.05 -0.044953065 99888.944
0.69075153 -0.05 -0.045449317 99885.028
0.68449332 -0.05 -0.045939873 99881.113
0.67823466 -0.05 -0.046424633 99877.178
0.67197554 -0.05 -0.046903606 99873.202
0.66571598 -0.05 -0.047376677 99869.244
0.65945597 -0.05 -0.047843745 99865.261
0.65319552 -0.05 -0.048304896 99861.249
0.64693463 -0.05 -0.048760043 99857.236
0.6406733 -0.05 -0.049209019 99853.217
0.63441152 -0.05 -0.049651793 99849.171
0.6281493 -0.05 -0.050088365 99845.085
0.62188666 -0.05 -0.0505186 99841.005
0.61562358 -0.05 -0.050942411 99836.894
0.60936005 -0.05 -0.051359797 99832.76
0.60309609 -0.05 -0.051770612 99828.607
0.59683171 -0.05 -0.052174783 99824.4
0.5905669 -0.05 -0.052572229 99820.181
0.58430165 -0.05 -0.052962857 99815.919
0.57803597 -0.05 -0.053346552 99811.657
0.57176987 -0.05 -0.05372317 99807.36
0.56550334 -0.05 -0.054092677 99803.004
0.5592364 -0.05 -0.054454951 99798.615
0.55296902 -0.05 -0.05480983 99794.195
0.54670124 -0.05 -0.055157245 99789.733
0.54043303 -0.05 -0.05549703 99785.273
0.5341644 -0.05 -0.055829049 99780.748
0.52789538 -0.05 -0.056153228 99776.164
0.52162593 -0.05 -0.056469397 99771.548
0.51535608 -0.05 -0.056777414 99766.875
0.50908583 -0.05 -0.057077111 99762.186
0.50281518 -0.05 -0.05736835 99757.437
0.49654413 -0.05 -0.057651008 99752.715
0.4902727 -0.05 -0.057924886 99748.02
0.48400088 -0.05 -0.058189782 99743.333
0.47772869 -0.05 -0.058445571 99738.565
0.47145612 -0.05 -0.058692117 99733.754
0.46518318 -0.05 -0.058929166 99728.873
0.45890989 -0.05 -0.059156505 99723.969
0.45263626 -0.05 -0.059373973 99719.042
0.44636227 -0.05 -0.059581386 99714.109
0.44008795 -0.05 -0.059778519 99709.133
0.43381332 -0.05 -0.059965129 99704.14
0.42753838 -0.05 -0.060141009 99699.137
0.42126313 -0.05 -0.060305958 99694.132
0.4149876 -0.05 -0.060459728 99689.103
0.40871181 -0.05 -0.060602042 99684.053
0.40243576 -0.05 -0.060732673 99678.949
0.39615947 -0.05 -0.06085134 99673.923
0.38988296 -0.05 -0.06095773 99668.916
0.38360626 -0.05 -0.061051631 99663.871
0.37732938 -0.05 -0.061132801 99658.763
0.37105234 -0.05 -0.061200844 99653.777
0.36477517 -0.05 -0.061255437 99648.797
0.35849789 -0.05 -0.061296341 99643.837
0.35222054 -0.05 -0.061323219 99638.829
0.34594314 -0.05 -0.061335715 99633.872
0.33966574 -0.05 -0.061333443 99629.021
0.33338836 -0.05 -0.061316073 99624.166
0.32711103 -0.05 -0.061283216 99619.324
0.32083382 -0.05 -0.061234446 99614.553
0.31455675 -0.05 -0.061169376 99609.997
0.30827987 -0.05 -0.061087592 99605.367
0.30200324 -0.05 -0.06098866 99600.028
0.29827877 -0.05 0.059108285 99351.527
0.29264229 -0.05 0.059200653 99344.716
0.28708672 -0.05 0.059277125 99337.879
0.28161095 -0.05 0.059337932 99331.195
0.27621387 -0.05 0.059383362 99324.581
0.27089436 -0.05 0.059413733 99318.076
0.26565137 -0.05 0.059429341 99311.665
0.26048383 -0.05 0.059430449 99305.409
0.25539069 -0.05 0.059417367 99299.147
0.25037092 -0.05 0.059390363 99293.059
0.2454235 -0.05 0.059349637 99287.057
0.24054744 -0.05 0.059295489 99281.16
0.23574174 -0.05 0.05922818 99275.352
0.23100545 -0.05 0.059147992 99269.608
0.22633757 -0.05 0.059055188 99263.971
0.22173718 -0.05 0.058949956 99258.479
0.21720335 -0.05 0.05883258 99252.983
0.21273516 -0.05 0.058703301 99247.636
0.2083317 -0.05 0.058562268 99242.412
0.20399207 -0.05 0.058409764 99237.265
0.19971542 -0.05 0.05824602 99232.27
0.19550085 -0.05 0.058071283 99227.269
0.19134753 -0.05 0.057885775 99222.382
0.18725461 -0.05 0.057689596 99217.659
0.18322127 -0.05 0.057483015 99212.941
0.17924668 -0.05 0.057266239 99208.418
0.17533004 -0.05 0.057039445 99203.933
0.17147056 -0.05 0.056802855 99199.575
0.16766745 -0.05 0.056556648 99195.262
0.16391996 -0.05 0.056300975 99191.124
0.16022732 -0.05 0.05603598 99187.076
0.15658878 -0.05 0.055761906 99183.078
0.15300362 -0.05 0.055478877 99179.231
0.14947111 -0.05 0.055187053 99175.396
0.14599052 -0.05 0.054886594 99171.711
0.14256117 -0.05 0.05457761 99168.14
0.13918237 -0.05 0.054260271 99164.696
0.13585344 -0.05 0.053934705 99161.387
0.13257368 -0.05 0.053601097 99158.079
0.12934247 -0.05 0.053259567 99154.963
0.12615914 -0.05 0.052910154 99152.009
0.12302306 -0.05 0.052553054 99149.013
0.1199336 -0.05 0.052188399 99146.133
0.11689013 -0.05 0.051816216 99143.41
0.11389208 -0.05 0.051436592 99140.819
0.11093883 -0.05 0.051049666 99138.296
0.1080298 -0.05 0.050655484 99136.061
0.10516441 -0.05 0.050254149 99133.85
0.10234208 -0.05 0.049845825 99131.741
0.099562286 -0.05 0.049430465 99129.872
0.096824468 -0.05 0.049008132 99127.991
0.094128082 -0.05 0.048578977 99126.19
0.091472627 -0.05 0.048142927 99124.707
0.08885758 -0.05 0.047700054 99123.268
0.086282433 -0.05 0.047250431 99122.157
0.083746693 -0.05 0.046794094 99121.062
0.081249873 -0.05 0.046331091 99120.188
0.078791524 -0.05 0.045861326 99119.522
0.076371187 -0.05 0.045384795 99119.032
0.073988397 -0.05 0.044901579 99118.608
0.07164271 -0.05 0.044411703 99118.43
0.069333718 -0.05 0.043915061 99118.637
0.06706101 -0.05 0.043411616 99119.077
0.064824175 -0.05 0.04290137 99119.665
0.062622835 -0.05 0.042384238 99120.427
0.060456619 -0.05 0.041860139 99121.437
0.058325164 -0.05 0.041329015 99122.872
0.056228126 -0.05 0.04079077 99124.784
0.054165158 -0.05 0.040245372 99127.008
0.052135963 -0.05 0.039692638 99129.778
0.050140248 -0.05 0.039132419 99132.568
0.048177712 -0.05 0.038564654 99135.68
0.046248097 -0.05 0.037989162 99139.282
0.044351165 -0.05 0.037405759 99143.681
0.042486721 -0.05 0.036814173 99148.962
0.040654561 -0.05 0.036214212 99154.707
0.038854487 -0.05 0.035605728 99160.758
0.037086361 -0.05 0.034988436 99167.519
0.035350078 -0.05 0.034362033 99175.439
0.033645559 -0.05 0.033726201 99184.673
0.031972749 -0.05 0.033080629 99194.904
0.030331635 -0.05 0.032424961 99205.78
0.02872227 -0.05 0.031758767 99217.268
0.027144716 -0.05 0.031081663 99230.556
0.025599118 -0.05 0.030393163 99246.161
0.024085677 -0.05 0.029692746 99263.77
0.022604649 -0.05 0.0289799 99282.93
0.02115641 -0.05 0.028253993 99303.689
0.019741357 -0.05 0.027514446 99327.521
0.018360055 -0.05 0.026760527 99355.114
0.017013156 -0.05 0.025991471 99385.062
0.015701401 -0.05 0.025206522 99417.439
0.014425725 -0.05 0.024404821 99452.289
0.013187238 -0.05 0.023585492 99491.507
0.01198725 -0.05 0.022747621 99537.879
0.010827294 -0.05 0.02189019 99592.252
0.0097091028 -0.05 0.021012117 99655.051
0.008634726 -0.05 0.020112513 99728.659
0.0076066389 -0.05 0.019190499 99813.255
0.0066275545 -0.05 0.018244941 99906.268
0.0057005177 -0.05 0.017275057 100005.32
0.0048292576 -0.05 0.016280618 100116.08
0.0040176371 -0.05 0.015261178 100238.23
0.0032697463 -0.05 0.014216841 100370.49
0.002590347 -0.05 0.013148841 100514.22
0.0019840396 -0.05 0.012058566 100665.93
0.0014552093 -0.05 0.010948438 100821.2
0.0010078559 -0.05 0.0098224182 100975.09
0.00064513931 -0.05 0.0086848513 101122.69
0.00036890917 -0.05 0.0075410094 101258.22
0.00017935995 -0.05 0.0063969477 101373.45
7.5106536e-05 -0.05 0.0052587579 101464.48
0.99677057 -0.05 -0.013567819 100231.44
0.99057532 -0.05 -0.012555512 100170.54
0.98437893 -0.05 -0.011550172 100140.33
0.97818142 -0.05 -0.010551773 100117.61
0.97198282 -0.05 -0.0095602079 100099.58
0.96578316 -0.05 -0.0085753206 100083.42
0.95958243 -0.05 -0.0075971274 100069.25
0.95338065 -0.05 -0.0066255653 100056.11
0.94717788 -0.05 -0.0056604802 100044.02
0.9409741 -0.05 -0.0047017876 100032.56
0.93476934 -0.05 -0.003749483 100021.97
0.92856362 -0.05 -0.0028035066 100011.76
0.92235694 -0.05 -0.001863782 100002.17
0.91614932 -0.05 -0.0009302744 99992.939
0.90994081 -0.05 -2.833365e-06 99984.048
0.90373138 -0.05 0.00091853859 99975.557
0.89752106 -0.05 0.0018338727 99967.367
0.89130989 -0.05 0.0027433044 99959.318
0.88509784 -0.05 0.0036468474 99951.583
0.87888493 -0.05 0.004544445 99944.186
0.87267119 -0.05 0.0054362342 99936.809
0.86645662 -0.05 0.0063222828 99929.67
0.86024123 -0.05 0.0072025623 99922.729
0.85402505 -0.05 0.0080771589 99915.891
0.84780808 -0.05 0.0089461348 99909.116
0.84159032 -0.05 0.0098094764 99902.516
0.83537177 -0.05 0.010667147 99896.15
0.82915247 -0.05 0.011519322 99889.578
0.82293242 -0.05 0.012365962 99883.341
0.81671161 -0.05 0.013207019 99877.068
0.81049005 -0.05 0.014042573 99871.017
0.80426776 -0.05 0.014872633 99864.942
0.79804474 -0.05 0.015697231 99858.984
0.791821 -0.05 0.016516323 99853.108
0.78559655 -0.05 0.017329993 99847.167
0.77937139 -0.05 0.018138207 99841.381
0.77314551 -0.05 0.018940934 99835.581
0.76691893 -0.05 0.019738234 99829.815
0.76069166 -0.05 0.020530092 99824.086
0.75446371 -0.05 0.0213165 99818.372
0.74823506 -0.05 0.022097429 99812.693
0.74200573 -0.05 0.022872862 99807.021
0.73577571 -0.05 0.023642786 99801.391
0.72954501 -0.05 0.024407165 99795.84
0.72331364 -0.05 0.025166032 99790.22
0.71708161 -0.05 0.025919418 99784.546
0.71084889 -0.05 0.026667147 99779.122
0.70461549 -0.05 0.027409269 99773.44
0.69838144 -0.05 0.028145751 99767.962
0.6921467 -0.05 0.0288765 99762.358
0.6859113 -0.05 0.029601572 99756.787
0.67967524 -0.05 0.030320869 99751.219
0.67343851 -0.05 0.031034401 99745.543
0.66720112 -0.05 0.031742052 99739.969
0.66096304 -0.05 0.03244372 99734.409
0.65472431 -0.05 0.033139492 99728.743
0.64848491 -0.05 0.033829282 99723.141
0.64224483 -0.05 0.034512921 99717.562
0.63600408 -0.05 0.035190377 99711.951
0.62976266 -0.05 0.035861655 99706.248
0.62352058 -0.05 0.036526615 99700.597
0.61727781 -0.05 0.037185174 99694.854
0.61103437 -0.05 0.037837326 99689.098
0.60479024 -0.05 0.038482929 99683.342
0.59854544 -0.05 0.03912191 99677.508
0.59229995 -0.05 0.039754186 99671.763
0.58605378 -0.05 0.040379665 99665.957
0.57980691 -0.05 0.040998232 99660.178
0.57355936 -0.05 0.041609743 99654.356
0.56731111 -0.05 0.042214163 99648.416
0.56106217 -0.05 0.042811372 99642.437
0.55481253 -0.05 0.043401208 99636.417
0.5485622 -0.05 0.043983599 99630.311
0.54231116 -0.05 0.044558382 99624.237
0.53605941 -0.05 0.045125419 99618.101
0.52980696 -0.05 0.045684639 99611.968
0.5235538 -0.05 0.046235869 99605.839
0.51729993 -0.05 0.046778968 99599.628
0.51104534 -0.05 0.047313768 99593.424
0.50479003 -0.05 0.04784013 99587.104
0.49853402 -0.05 0.048357932 99580.7
0.49227728 -0.05 0.048866976 99574.229
0.48601982 -0.05 0.049367058 99567.767
0.47976165 -0.05 0.049858054 99561.2
0.47350275 -0.05 0.050339826 99554.573
0.46724313 -0.05 0.050812122 99547.916
0.46098279 -0.05 0.051274731 99541.199
0.45472173 -0.05 0.051727486 99534.351
0.44845995 -0.05 0.052170207 99527.518
0.44219745 -0.05 0.052602667 99520.674
0.43593425 -0.05 0.053024625 99513.76
0.42967032 -0.05 0.053435871 99506.767
0.42340568 -0.05 0.053836205 99499.685
0.41714035 -0.05 0.054225378 99492.545
0.41087432 -0.05 0.054603114 99485.375
0.40460759 -0.05 0.054969185 99478.108
0.39834018 -0.05 0.055323309 99470.862
0.39207208 -0.05 0.055665172 99463.612
0.38580333 -0.05 0.055994563 99456.291
0.37953391 -0.05 0.056311239 99448.884
0.37326384 -0.05 0.056614802 99441.549
0.36699314 -0.05 0.056904931 99434.16
0.36072183 -0.05 0.057181383 99426.75
0.35444991 -0.05 0.057443823 99419.291
0.3481774 -0.05 0.057691893 99411.821
0.34190434 -0.05 0.057925205 99404.352
0.33563072 -0.05 0.058143428 99396.808
0.32935659 -0.05 0.058346173 99389.296
0.32308197 -0.05 0.058533014 99381.802
0.31680688 -0.05 0.05870356 99374.206
0.31053136 -0.05 0.058857395 99366.266
0.30425544 -0.05 0.058994087 99358.703
