# wallShearStress  FACE_DATA 448
# x y z  wallShearStress_x wallShearStress_y wallShearStress_z
0.2960265 -0.05 -0.060878482 -6.7533531 -2.2839294e-17 0.14887552
0.29039053 -0.05 -0.060759256 -6.9630087 -2.8755185e-17 0.17208547
0.28483601 -0.05 -0.060627182 -7.2156657 2.7377904e-17 0.1975476
0.27936182 -0.05 -0.060482448 -7.4634209 -6.8046563e-17 0.22419086
0.27396683 -0.05 -0.0603253 -7.7112183 -3.6500841e-17 0.25239437
0.26864993 -0.05 -0.060156016 -7.9611642 8.2368332e-17 0.2823607
0.26341004 -0.05 -0.05997485 -8.212658 -1.1756001e-16 0.31387134
0.2582461 -0.05 -0.059782027 -8.4645155 -1.5130199e-16 0.34707768
0.25315704 -0.05 -0.059577816 -8.7154208 1.2075676e-16 0.38176783
0.24814182 -0.05 -0.059362445 -8.96652 -4.6018573e-17 0.41837554
0.24319942 -0.05 -0.059136079 -9.2174222 3.813822e-16 0.45658186
0.23832882 -0.05 -0.058898977 -9.4674716 -3.99098e-17 0.49644231
0.23352904 -0.05 -0.058651364 -9.71518 1.4481584e-17 0.53778185
0.22879908 -0.05 -0.058393486 -9.958966 2.7659015e-16 0.58065491
0.22413798 -0.05 -0.058125568 -10.200475 -3.7470647e-18 0.62524747
0.21954478 -0.05 -0.057847764 -10.438354 -2.4831882e-16 0.67141425
0.21501854 -0.05 -0.057560322 -10.670667 -4.8002005e-18 0.71883623
0.21055835 -0.05 -0.057263448 -10.896332 5.922662e-17 0.76785408
0.20616329 -0.05 -0.056957259 -11.112598 -4.3760954e-17 0.81798101
0.20183245 -0.05 -0.056642002 -11.322066 2.2599048e-16 0.86940418
0.19756494 -0.05 -0.056317877 -11.52721 -1.3627039e-16 0.92237274
0.19335991 -0.05 -0.055985097 -11.73327 -2.8156932e-16 0.9768653
0.18921647 -0.05 -0.055643851 -11.942265 -5.480014e-17 1.0331501
0.1851338 -0.05 -0.055294209 -12.147868 -1.8294258e-16 1.0904485
0.18111104 -0.05 -0.054936407 -12.34312 1.3406797e-16 1.1481616
0.17714739 -0.05 -0.054570623 -12.519712 2.4124497e-16 1.2069896
0.17324202 -0.05 -0.054197003 -12.674445 -1.1819291e-16 1.2668427
0.16939414 -0.05 -0.053815739 -12.812699 -4.499057e-17 1.3291313
0.16560296 -0.05 -0.053426979 -12.95292 2.2182008e-16 1.3952197
0.1618677 -0.05 -0.053030847 -13.110726 3.2198269e-16 1.4662174
0.1581876 -0.05 -0.052627461 -13.290002 1.8242281e-17 1.5414222
0.15456192 -0.05 -0.052217029 -13.483662 -2.0540614e-17 1.6203502
0.1509899 -0.05 -0.051799654 -13.691436 -7.9586942e-16 1.703425
0.14747083 -0.05 -0.051375464 -13.915925 -2.1243634e-16 1.7904859
0.14400397 -0.05 -0.050944596 -14.163463 -1.0894516e-16 1.8826199
0.14058864 -0.05 -0.05050713 -14.435791 4.1093162e-16 1.9800766
0.13722412 -0.05 -0.050063213 -14.727878 4.6647552e-17 2.0829488
0.13390974 -0.05 -0.049612947 -15.030683 9.1263154e-17 2.1905689
0.13064482 -0.05 -0.049156489 -15.336943 1.8749835e-16 2.302069
0.1274287 -0.05 -0.048693936 -15.641678 -5.385689e-16 2.4174645
0.12426073 -0.05 -0.048225304 -15.940381 3.0989718e-17 2.5356317
0.12114027 -0.05 -0.047750762 -16.232324 5.012788e-17 2.6565013
0.11806666 -0.05 -0.047270421 -16.516662 1.0173461e-16 2.7806406
0.11503931 -0.05 -0.046784284 -16.791123 8.1613464e-16 2.907435
0.11205761 -0.05 -0.046292414 -17.054535 -2.4356944e-16 3.0364338
0.10912097 -0.05 -0.04579493 -17.306662 -3.5410154e-16 3.1677387
0.10622877 -0.05 -0.045291853 -17.54649 -6.4863841e-16 3.3011845
0.10338047 -0.05 -0.044783266 -17.773967 -1.1835676e-16 3.4364219
0.10057546 -0.05 -0.044269312 -17.989898 2.8952334e-16 3.575187
0.097813204 -0.05 -0.043749923 -18.192525 3.6997269e-17 3.716103
0.095093164 -0.05 -0.043225141 -18.383343 -7.0552029e-17 3.858631
0.092414784 -0.05 -0.042695097 -18.563465 -5.3936817e-16 4.0038777
0.089777563 -0.05 -0.042159698 -18.730606 -6.4499761e-16 4.1510754
0.087180979 -0.05 -0.041618998 -18.885451 1.2361225e-16 4.299732
0.084624519 -0.05 -0.04107305 -19.028076 -4.3949855e-16 4.4505047
0.082107692 -0.05 -0.040521871 -19.158922 -5.7430437e-16 4.6031345
0.079630007 -0.05 -0.039965492 -19.277808 -5.0033445e-16 4.758444
0.077191019 -0.05 -0.0394038 -19.382929 2.8786923e-16 4.9153432
0.074790271 -0.05 -0.038836773 -19.474361 -2.0549305e-16 5.0732892
0.072427293 -0.05 -0.038264474 -19.553561 5.4437164e-16 5.2328105
0.070101643 -0.05 -0.037686913 -19.620796 3.9917891e-16 5.3945182
0.067812916 -0.05 -0.037103967 -19.675277 2.9456447e-17 5.5575814
0.065560702 -0.05 -0.036515585 -19.717653 -4.0901072e-16 5.7218244
0.063344592 -0.05 -0.035921754 -19.747335 9.9785592e-17 5.8884984
0.06116421 -0.05 -0.035322372 -19.760947 5.7313084e-16 6.056258
0.059019189 -0.05 -0.034717347 -19.758428 -8.2530611e-16 6.2248445
0.056909167 -0.05 -0.034106606 -19.739567 -1.2565457e-16 6.3942866
0.054833807 -0.05 -0.033490041 -19.703843 -2.4493918e-16 6.5641986
0.05279276 -0.05 -0.032867608 -19.65212 -6.8573881e-16 6.7353708
0.050785737 -0.05 -0.032239111 -19.581398 2.0747804e-17 6.9066272
0.048812453 -0.05 -0.03160439 -19.492554 -3.2162047e-16 7.0774645
0.046872606 -0.05 -0.030963373 -19.385352 1.2249916e-15 7.2484525
0.044965948 -0.05 -0.03031587 -19.259405 -3.4599837e-16 7.4193591
0.043092247 -0.05 -0.02966169 -19.113242 -3.8281314e-16 7.5899172
0.041251318 -0.05 -0.029000551 -18.945371 -1.7833107e-16 7.7591388
0.039442964 -0.05 -0.028332254 -18.755901 7.7499283e-16 7.9268685
0.037666993 -0.05 -0.027656644 -18.545251 2.0949067e-16 8.0929572
0.035923279 -0.05 -0.026973432 -18.311912 2.9393456e-16 8.2569227
0.034211728 -0.05 -0.026282308 -18.054964 -2.2629254e-16 8.4179174
0.032532272 -0.05 -0.025582957 -17.773172 -4.7665061e-16 8.5746385
0.030884867 -0.05 -0.024875061 -17.466315 8.595751e-16 8.7269606
0.029269516 -0.05 -0.024158267 -17.133175 -6.2826234e-17 8.8736328
0.027686285 -0.05 -0.023432145 -16.772478 3.2380022e-17 9.0131793
0.026135254 -0.05 -0.022696314 -16.384146 -8.5435311e-16 9.1449566
0.024616582 -0.05 -0.021950295 -15.966301 4.9229383e-16 9.2668604
0.023130494 -0.05 -0.021193574 -15.518414 5.172127e-16 9.377264
0.021677262 -0.05 -0.02042565 -15.03963 -8.9615455e-16 9.474318
0.020257285 -0.05 -0.019645902 -14.528382 1.0972168e-15 9.5546979
0.018870982 -0.05 -0.018853772 -13.984975 -9.2139425e-16 9.6174807
0.017518947 -0.05 -0.018048547 -13.407169 2.8486937e-16 9.6574691
0.016201858 -0.05 -0.017229485 -12.795547 -3.5993808e-16 9.6725974
0.014920487 -0.05 -0.01639586 -12.150149 7.5786914e-16 9.659113
0.013675795 -0.05 -0.015546849 -11.470202 -4.6944364e-16 9.6120994
0.012468929 -0.05 -0.014681619 -10.754309 -4.6688096e-16 9.5238925
0.01130123 -0.05 -0.013799304 -10.004408 9.60828e-16 9.3912247
0.01017427 -0.05 -0.012898945 -9.225141 5.3724921e-16 9.2106673
0.0090898191 -0.05 -0.011979527 -8.4207659 -7.7577382e-16 8.9733535
0.0080499601 -0.05 -0.011040237 -7.5916081 4.9776735e-16 8.6732003
0.0070571991 -0.05 -0.01008029 -6.7445436 -3.5681329e-17 8.3002506
0.0061142899 -0.05 -0.0090986536 -5.887817 -5.5227256e-16 7.8410396
0.0052243046 -0.05 -0.0080946629 -5.0343378 -4.2731888e-16 7.2879833
0.0043909781 -0.05 -0.0070682271 -4.1982492 -3.3660602e-16 6.6417797
0.0036181876 -0.05 -0.0060190463 -3.3872043 1.56253e-18 5.9025411
0.0029100161 -0.05 -0.0049473779 -2.6134774 -5.3119838e-16 5.0771148
0.0022711761 -0.05 -0.0038546328 -1.9077537 1.9004648e-16 4.1807257
0.0017062122 -0.05 -0.0027423728 -1.3025378 1.8985954e-16 3.2267892
0.0012194161 -0.05 -0.0016131796 -0.81042266 2.1787609e-16 2.2374536
0.0008146358 -0.05 -0.00047116484 -0.46770665 1.9221198e-16 1.2847168
0.00049486606 -0.05 0.0006792128 -0.26329613 2.4592141e-16 0.60291174
0.00026175732 -0.05 0.0018326155 -0.16340009 -6.0228678e-17 0.00015666034
0.0001152767 -0.05 0.0029829848 -0.10743271 2.3636204e-18 -0.60132214
5.3811434e-05 -0.05 0.0041242853 -0.13088778 5.2090253e-18 -1.3139922
0.99675369 -0.05 -0.014467014 0.19439499 -1.2634396e-16 -0.11226782
0.99052482 -0.05 -0.015246108 -0.010962263 -2.9684904e-16 0.000467582
0.98429506 -0.05 -0.016018199 0.013124309 -2.6443362e-16 0.00084070906
0.97806445 -0.05 -0.016783312 -0.0010078331 2.9313262e-16 -0.0001775769
0.971833 -0.05 -0.017541552 0.0069989407 9.584951e-17 0.00050824621
0.96560074 -0.05 -0.018293081 0.0045538873 7.6848568e-16 0.00029000333
0.95936767 -0.05 -0.01903788 0.0063898289 -1.8705905e-16 0.00050884602
0.95313381 -0.05 -0.019776014 0.006020881 -3.1790467e-16 0.00044750754
0.94689918 -0.05 -0.020507638 0.0066233574 5.2337205e-16 0.00051089744
0.9406638 -0.05 -0.021232836 0.0067155896 2.3892957e-16 0.00049564002
0.93442767 -0.05 -0.021951614 0.0070462931 2.319891e-17 0.00051707976
0.92819082 -0.05 -0.022664031 0.0072357749 -5.5314659e-16 0.00051725639
0.92195324 -0.05 -0.023370165 0.0074814121 -5.2184014e-17 0.00053518964
0.91571497 -0.05 -0.024070053 0.007885145 -1.8267086e-18 0.00053989871
0.90947602 -0.05 -0.024763843 0.0084609067 -4.7895292e-16 0.00052776156
0.90323638 -0.05 -0.025451534 0.0094001729 -5.8978068e-16 0.00045080593
0.89699609 -0.05 -0.026133159 0.01385818 1.5470356e-16 0.00064733944
0.89075516 -0.05 -0.026808853 0.013710518 -8.595672e-17 0.00072201541
0.88451358 -0.05 -0.02747863 0.014692504 -7.3672587e-17 0.001110778
0.87827136 -0.05 -0.028142433 0.013062252 -2.6201327e-16 0.000941897
0.87202853 -0.05 -0.028800401 0.014169084 -5.7301194e-16 0.0010714482
0.86578509 -0.05 -0.029452601 0.012198887 4.3295328e-16 0.0008582647
0.85954105 -0.05 -0.030099006 0.013036635 -1.2385866e-16 0.00090869567
0.85329642 -0.05 -0.030739701 0.012079853 -2.8565929e-16 0.00084937059
0.84705121 -0.05 -0.03137475 0.011665707 -2.9669849e-16 0.0007764748
0.84080543 -0.05 -0.03200414 0.010609036 3.140827e-16 0.00067123341
0.83455908 -0.05 -0.032627833 0.0091123863 1.2190004e-16 0.00049913746
0.82831218 -0.05 -0.033246006 0.0071961869 7.3514582e-16 0.00029428727
0.82206473 -0.05 -0.033858618 0.00485869 9.110824e-17 6.8183376e-05
0.81581675 -0.05 -0.034465624 0.0021452849 -1.2322681e-16 -0.00018516429
0.80956821 -0.05 -0.035067103 -0.00090185751 3.37226e-16 -0.0004329466
0.80331915 -0.05 -0.035663065 -0.0035975219 -1.793346e-16 -0.000658049
0.79706958 -0.05 -0.036253542 -0.00609452 2.5074847e-16 -0.00089622506
0.79081948 -0.05 -0.036838487 -0.0088774844 -2.3645759e-16 -0.0011491788
0.78456888 -0.05 -0.037417989 -0.011985897 2.2202069e-16 -0.0014253953
0.77831777 -0.05 -0.037992012 -0.015422835 -8.7140557e-17 -0.0017275955
0.77206615 -0.05 -0.038560524 -0.019211182 4.7769646e-16 -0.0020504761
0.76581404 -0.05 -0.039123588 -0.023363953 2.6663237e-17 -0.0023989894
0.75956144 -0.05 -0.039681188 -0.027896379 -4.1562247e-17 -0.0027730198
0.75330836 -0.05 -0.040233315 -0.032885301 -4.7493152e-17 -0.0031765162
0.74705479 -0.05 -0.040779941 -0.038390114 -6.6684147e-17 -0.0036100947
0.74080075 -0.05 -0.041321049 -0.044467966 1.0466278e-16 -0.0040776367
0.73454622 -0.05 -0.041856628 -0.051176284 -2.2030674e-16 -0.0045842973
0.72829123 -0.05 -0.042386638 -0.058532154 1.6068397e-16 -0.0051331212
0.72203577 -0.05 -0.042911116 -0.0666083 -9.1761677e-17 -0.005722101
0.71577985 -0.05 -0.043430091 -0.075445937 4.1195924e-16 -0.00635143
0.70952346 -0.05 -0.043943387 -0.084956135 3.56471e-16 -0.0070269182
0.70326661 -0.05 -0.044451057 -0.095246592 2.3275163e-16 -0.0077370192
0.69700929 -0.05 -0.044953065 -0.10636827 5.4317576e-17 -0.008498489
0.69075153 -0.05 -0.045449317 -0.11819824 -1.7258841e-16 -0.0092865724
0.68449332 -0.05 -0.045939873 -0.13090348 7.1897828e-17 -0.010123329
0.67823466 -0.05 -0.046424633 -0.14439896 2.0591106e-16 -0.010993353
0.67197554 -0.05 -0.046903606 -0.15889375 4.6621625e-17 -0.011902741
0.66571598 -0.05 -0.047376677 -0.1743628 3.174312e-16 -0.012853655
0.65945597 -0.05 -0.047843745 -0.19070782 -4.4192877e-17 -0.013841357
0.65319552 -0.05 -0.048304896 -0.20812892 5.1440682e-17 -0.014870714
0.64693463 -0.05 -0.048760043 -0.22671327 -1.2864107e-16 -0.015969995
0.6406733 -0.05 -0.049209019 -0.24742169 -1.7564206e-16 -0.017133982
0.63441152 -0.05 -0.049651793 -0.26996887 1.8658981e-16 -0.018375601
0.6281493 -0.05 -0.050088365 -0.29395508 1.3877397e-16 -0.019679889
0.62188666 -0.05 -0.0505186 -0.31933817 -1.5356452e-16 -0.021026835
0.61562358 -0.05 -0.050942411 -0.34605069 -4.7323523e-17 -0.022408751
0.60936005 -0.05 -0.051359797 -0.37430094 8.0713793e-17 -0.023828647
0.60309609 -0.05 -0.051770612 -0.40407688 -1.2054537e-16 -0.025280912
0.59683171 -0.05 -0.052174783 -0.43554384 1.4071174e-16 -0.026764082
0.5905669 -0.05 -0.052572229 -0.46883648 3.0017127e-17 -0.028286815
0.58430165 -0.05 -0.052962857 -0.5039087 1.8575647e-17 -0.029837438
0.57803597 -0.05 -0.053346552 -0.54088488 -1.6545312e-16 -0.031413714
0.57176987 -0.05 -0.05372317 -0.57967569 2.1202368e-16 -0.033006554
0.56550334 -0.05 -0.054092677 -0.62062384 1.4251097e-16 -0.034620841
0.5592364 -0.05 -0.054454951 -0.66384959 1.6867879e-16 -0.036247287
0.55296902 -0.05 -0.05480983 -0.70935238 -8.2886718e-17 -0.03788885
0.54670124 -0.05 -0.055157245 -0.75727361 -2.2389133e-16 -0.039539497
0.54043303 -0.05 -0.05549703 -0.8078049 -1.2766399e-16 -0.041194529
0.5341644 -0.05 -0.055829049 -0.86090697 -5.2382092e-17 -0.042841103
0.52789538 -0.05 -0.056153228 -0.91698557 -9.8060502e-17 -0.044470933
0.52162593 -0.05 -0.056469397 -0.97602272 1.7342203e-16 -0.046083114
0.51535608 -0.05 -0.056777414 -1.0380483 -8.866144e-17 -0.047666311
0.50908583 -0.05 -0.057077111 -1.1031392 -1.5324172e-16 -0.049195949
0.50281518 -0.05 -0.05736835 -1.1725787 5.988911e-17 -0.050789214
0.49654413 -0.05 -0.057651008 -1.2506934 1.2560205e-16 -0.052727062
0.4902727 -0.05 -0.057924886 -1.3414216 -1.9401969e-16 -0.054898195
0.48400088 -0.05 -0.058189782 -1.437532 -1.2687912e-16 -0.056716911
0.47772869 -0.05 -0.058445571 -1.5361385 -4.0581682e-18 -0.058288326
0.47145612 -0.05 -0.058692117 -1.6381749 1.3516464e-16 -0.059694345
0.46518318 -0.05 -0.058929166 -1.7443377 -1.8568145e-16 -0.060770221
0.45890989 -0.05 -0.059156505 -1.8549805 1.4769714e-16 -0.061034752
0.45263626 -0.05 -0.059373973 -1.9696052 1.1111751e-16 -0.061217464
0.44636227 -0.05 -0.059581386 -2.0890839 -5.0890655e-17 -0.06164869
0.44008795 -0.05 -0.059778519 -2.2137524 -3.3502021e-17 -0.061735164
0.43381332 -0.05 -0.059965129 -2.3437403 -8.032242e-17 -0.061459555
0.42753838 -0.05 -0.060141009 -2.479136 5.6886657e-17 -0.060814522
0.42126313 -0.05 -0.060305958 -2.6199259 -3.254351e-17 -0.059740043
0.4149876 -0.05 -0.060459728 -2.7663184 -4.9985745e-17 -0.058176311
0.40871181 -0.05 -0.060602042 -2.9183877 2.5386314e-17 -0.056057636
0.40243576 -0.05 -0.060732673 -3.0765899 -1.5070947e-17 -0.053375497
0.39615947 -0.05 -0.06085134 -3.2406527 7.0215781e-17 -0.050032379
0.38988296 -0.05 -0.06095773 -3.4102381 1.6598183e-17 -0.04600816
0.38360626 -0.05 -0.061051631 -3.5859207 1.803341e-17 -0.041233337
0.37732938 -0.05 -0.061132801 -3.7683669 -6.202174e-17 -0.03561803
0.37105234 -0.05 -0.061200844 -3.9571001 -3.7169889e-18 -0.029144434
0.36477517 -0.05 -0.061255437 -4.1515717 -3.4010843e-17 -0.022121482
0.35849789 -0.05 -0.061296341 -4.3523338 -1.4003925e-17 -0.013164729
0.35222054 -0.05 -0.061323219 -4.5599765 -1.0849621e-17 -0.0035149963
0.34594314 -0.05 -0.061335715 -4.7745062 2.0359867e-19 0.0074950903
0.33966574 -0.05 -0.061333443 -4.9954373 -6.0538172e-18 0.020053434
0.33338836 -0.05 -0.061316073 -5.222729 5.8149557e-19 0.033595957
0.32711103 -0.05 -0.061283216 -5.4564187 5.157316e-18 0.048400437
0.32083382 -0.05 -0.061234446 -5.6957002 -6.6785692e-17 0.065122613
0.31455675 -0.05 -0.061169376 -5.9414126 9.6562391e-17 0.083586148
0.30827987 -0.05 -0.061087592 -6.1937959 -6.0260527e-17 0.10406488
0.30200324 -0.05 -0.06098866 -6.4827657 -2.2812821e-17 0.12680456
0.29827877 -0.05 0.059108285 -7.1631469 2.20132e-17 0.12802711
0.29264229 -0.05 0.059200653 -7.052903 -6.4831466e-19 0.10737096
0.28708672 -0.05 0.059277125 -6.9256684 3.2297122e-18 0.08761564
0.28161095 -0.05 0.059337932 -6.8054833 -4.3480497e-17 0.068749597
0.27621387 -0.05 0.059383362 -6.6913767 1.261212e-17 0.049896209
0.27089436 -0.05 0.059413733 -6.5837647 -8.728636e-18 0.029845198
0.26565137 -0.05 0.059429341 -6.4826415 2.2152889e-18 0.011580081
0.26048383 -0.05 0.059430449 -6.387491 2.6031464e-18 -0.0067229494
0.25539069 -0.05 0.059417367 -6.2981783 -9.6166315e-18 -0.024976633
0.25037092 -0.05 0.059390363 -6.2144243 -1.2930079e-17 -0.041816928
0.2454235 -0.05 0.059349637 -6.1348658 3.2290483e-17 -0.057998766
0.24054744 -0.05 0.059295489 -6.0592333 1.00172e-17 -0.074090623
0.23574174 -0.05 0.05922818 -5.9863456 5.8686589e-17 -0.090453183
0.23100545 -0.05 0.059147992 -5.9160544 -2.1820802e-17 -0.10671447
0.22633757 -0.05 0.059055188 -5.8492261 5.8681582e-17 -0.12289461
0.22173718 -0.05 0.058949956 -5.7855443 1.2245455e-16 -0.13894735
0.21720335 -0.05 0.05883258 -5.7253197 6.4143539e-17 -0.15482821
0.21273516 -0.05 0.058703301 -5.6687871 -1.1123053e-16 -0.1707733
0.2083317 -0.05 0.058562268 -5.6150389 -6.5084898e-17 -0.18659438
0.20399207 -0.05 0.058409764 -5.5643681 1.6558039e-17 -0.20233773
0.19971542 -0.05 0.05824602 -5.516724 -1.8901505e-16 -0.21807295
0.19550085 -0.05 0.058071283 -5.4721587 -9.4166783e-17 -0.23378996
0.19134753 -0.05 0.057885775 -5.4310627 -2.1344594e-17 -0.24972286
0.18725461 -0.05 0.057689596 -5.3924776 -7.0781538e-17 -0.2656847
0.18322127 -0.05 0.057483015 -5.3565427 5.5131507e-17 -0.28164952
0.17924668 -0.05 0.057266239 -5.323467 1.2952024e-16 -0.2978333
0.17533004 -0.05 0.057039445 -5.2924914 1.5345768e-17 -0.31402534
0.17147056 -0.05 0.056802855 -5.2642955 1.3790961e-16 -0.33046326
0.16766745 -0.05 0.056556648 -5.2385036 9.3523655e-17 -0.34709235
0.16391996 -0.05 0.056300975 -5.215187 -1.1914081e-17 -0.3640156
0.16022732 -0.05 0.05603598 -5.1938133 2.4909993e-16 -0.38104462
0.15658878 -0.05 0.055761906 -5.1750211 2.009908e-16 -0.39838672
0.15300362 -0.05 0.055478877 -5.1587119 -2.51754e-16 -0.41610375
0.14947111 -0.05 0.055187053 -5.1447817 1.9604183e-16 -0.43410901
0.14599052 -0.05 0.054886594 -5.1334824 -6.5476108e-17 -0.45260264
0.14256117 -0.05 0.05457761 -5.1240351 1.4481852e-16 -0.47140539
0.13918237 -0.05 0.054260271 -5.1165131 2.7966316e-16 -0.49057743
0.13585344 -0.05 0.053934705 -5.1107775 -4.0593427e-16 -0.51011142
0.13257368 -0.05 0.053601097 -5.1070013 -3.7117114e-16 -0.53007363
0.12934247 -0.05 0.053259567 -5.105344 -8.1760027e-17 -0.55070586
0.12615914 -0.05 0.052910154 -5.1048419 1.7341131e-17 -0.57164295
0.12302306 -0.05 0.052553054 -5.1066007 1.905541e-17 -0.59310935
0.1199336 -0.05 0.052188399 -5.1111689 -9.515652e-17 -0.6154677
0.11689013 -0.05 0.051816216 -5.1173895 -1.1363747e-16 -0.63844604
0.11389208 -0.05 0.051436592 -5.1252493 4.410327e-17 -0.66203284
0.11093883 -0.05 0.051049666 -5.1351998 -7.6679716e-17 -0.68643864
0.1080298 -0.05 0.050655484 -5.1468591 2.7582775e-16 -0.71161889
0.10516441 -0.05 0.050254149 -5.1596295 3.7515933e-17 -0.73726795
0.10234208 -0.05 0.049845825 -5.1746421 1.0239208e-16 -0.76403865
0.099562286 -0.05 0.049430465 -5.1907643 2.9339665e-16 -0.79163808
0.096824468 -0.05 0.049008132 -5.2080533 -2.2365097e-16 -0.81993973
0.094128082 -0.05 0.048578977 -5.2280623 2.6383282e-17 -0.84969024
0.091472627 -0.05 0.048142927 -5.2495386 5.3802426e-16 -0.88047926
0.08885758 -0.05 0.047700054 -5.2717657 -2.3814166e-17 -0.91204205
0.086282433 -0.05 0.047250431 -5.2958551 -5.8557465e-16 -0.94486518
0.083746693 -0.05 0.046794094 -5.3210264 -3.6705372e-17 -0.97871298
0.081249873 -0.05 0.046331091 -5.3490428 -9.9541368e-17 -1.0144302
0.078791524 -0.05 0.045861326 -5.3784543 2.1431098e-16 -1.0514526
0.076371187 -0.05 0.045384795 -5.4092739 2.8293939e-16 -1.0897057
0.073988397 -0.05 0.044901579 -5.4414688 -5.8124112e-16 -1.1294257
0.07164271 -0.05 0.044411703 -5.4747315 4.0081566e-16 -1.1709149
0.069333718 -0.05 0.043915061 -5.5075443 -2.302994e-16 -1.2136415
0.06706101 -0.05 0.043411616 -5.5402118 8.7128772e-17 -1.2576193
0.064824175 -0.05 0.04290137 -5.5745034 8.4362579e-17 -1.3037708
0.062622835 -0.05 0.042384238 -5.611368 -4.2670241e-16 -1.3525251
0.060456619 -0.05 0.041860139 -5.650586 4.6071803e-16 -1.4038438
0.058325164 -0.05 0.041329015 -5.6916818 -4.8818756e-18 -1.4575572
0.056228126 -0.05 0.04079077 -5.7333768 4.107124e-17 -1.5132124
0.054165158 -0.05 0.040245372 -5.7751878 -6.2819376e-16 -1.5710833
0.052135963 -0.05 0.039692638 -5.8172665 -3.8027442e-16 -1.6313475
0.050140248 -0.05 0.039132419 -5.8585159 -3.9515136e-16 -1.6939901
0.048177712 -0.05 0.038564654 -5.902003 -2.9411547e-16 -1.7607807
0.046248097 -0.05 0.037989162 -5.9459338 7.1293446e-16 -1.8309422
0.044351165 -0.05 0.037405759 -5.9890085 -2.2156287e-16 -1.9043226
0.042486721 -0.05 0.036814173 -6.0303559 -7.1694379e-16 -1.9801591
0.040654561 -0.05 0.036214212 -6.0711223 1.3081288e-17 -2.0594857
0.038854487 -0.05 0.035605728 -6.1154753 6.9195635e-18 -2.1453737
0.037086361 -0.05 0.034988436 -6.1647029 8.2898349e-16 -2.2385484
0.035350078 -0.05 0.034362033 -6.2150334 -1.7994123e-16 -2.3366103
0.033645559 -0.05 0.033726201 -6.2619257 7.4923258e-17 -2.4380416
0.031972749 -0.05 0.033080629 -6.3034041 -9.1421214e-17 -2.5428244
0.030331635 -0.05 0.032424961 -6.3399241 -2.8086443e-16 -2.6538281
0.02872227 -0.05 0.031758767 -6.3748285 4.9600292e-16 -2.7742358
0.027144716 -0.05 0.031081663 -6.4070048 4.4345888e-17 -2.9011303
0.025599118 -0.05 0.030393163 -6.4275057 4.8217711e-17 -3.0301068
0.024085677 -0.05 0.029692746 -6.4410222 -8.5825065e-16 -3.1626098
0.022604649 -0.05 0.0289799 -6.4554906 -1.8011333e-16 -3.3033016
0.02115641 -0.05 0.028253993 -6.4736689 -3.2610922e-16 -3.4557588
0.019741357 -0.05 0.027514446 -6.4760778 9.6170295e-16 -3.6113072
0.018360055 -0.05 0.026760527 -6.4320837 -2.112428e-16 -3.7575837
0.017013156 -0.05 0.025991471 -6.3175699 -7.6755319e-16 -3.8917749
0.015701401 -0.05 0.025206522 -6.1394856 9.7393274e-16 -4.0232031
0.014425725 -0.05 0.024404821 -5.9155279 5.6781632e-17 -4.1676987
0.013187238 -0.05 0.023585492 -5.6998514 -7.0281264e-16 -4.3718601
0.01198725 -0.05 0.022747621 -5.5218339 6.1028137e-16 -4.6763614
0.010827294 -0.05 0.02189019 -5.3696782 -2.6016712e-16 -5.0960524
0.0097091028 -0.05 0.021012117 -5.2565461 -5.940554e-16 -5.6128565
0.008634726 -0.05 0.020112513 -5.2076426 3.3825784e-17 -6.2086046
0.0076066389 -0.05 0.019190499 -5.2683919 1.0501446e-16 -6.8799408
0.0066275545 -0.05 0.018244941 -5.3392815 -2.3356339e-16 -7.5470732
0.0057005177 -0.05 0.017275057 -5.3194621 -3.0375049e-17 -8.1252647
0.0048292576 -0.05 0.016280618 -5.1564934 5.8046289e-17 -8.5607397
0.0040176371 -0.05 0.015261178 -4.8226394 3.0418296e-16 -8.8035092
0.0032697463 -0.05 0.014216841 -4.3290027 -4.7086175e-16 -8.836493
0.002590347 -0.05 0.013148841 -3.7261577 -8.1402972e-17 -8.645468
0.0019840396 -0.05 0.012058566 -3.055887 -3.5422354e-16 -8.2143612
0.0014552093 -0.05 0.010948438 -2.3681208 -2.3367576e-16 -7.5725909
0.0010078559 -0.05 0.0098224182 -1.7040588 5.5740168e-17 -6.7170086
0.00064513931 -0.05 0.0086848513 -1.1116677 -1.4566375e-16 -5.70954
0.00036890917 -0.05 0.0075410094 -0.67240136 8.1322936e-17 -4.6030589
0.00017935995 -0.05 0.0063969477 -0.37183554 2.2102306e-17 -3.4478844
7.5106536e-05 -0.05 0.0052587579 -0.20171608 3.7905198e-17 -2.3169969
0.99677057 -0.05 -0.013567819 -57.031927 1.2558273e-15 8.9349658
0.99057532 -0.05 -0.012555512 -51.92198 -6.925614e-16 8.4047032
0.98437893 -0.05 -0.011550172 -51.675127 -3.7912794e-16 8.3386339
0.97818142 -0.05 -0.010551773 -51.426353 -7.5682798e-16 8.239795
0.97198282 -0.05 -0.0095602079 -51.129704 1.7288244e-16 8.1356379
0.96578316 -0.05 -0.0085753206 -50.799712 -1.1847717e-15 8.0274848
0.95958243 -0.05 -0.0075971274 -50.449206 6.5060493e-16 7.916628
0.95338065 -0.05 -0.0066255653 -50.079407 1.4760472e-16 7.8052515
0.94717788 -0.05 -0.0056604802 -49.698048 5.1630663e-16 7.6931535
0.9409741 -0.05 -0.0047017876 -49.30631 4.0730389e-16 7.5810175
0.93476934 -0.05 -0.003749483 -48.907156 -8.962156e-16 7.4683472
0.92856362 -0.05 -0.0028035066 -48.500974 2.1103562e-16 7.3567178
0.92235694 -0.05 -0.001863782 -48.089818 -1.1530804e-15 7.2450807
0.91614932 -0.05 -0.0009302744 -47.673235 -9.4331579e-16 7.1345816
0.90994081 -0.05 -2.833365e-06 -47.252957 1.5440182e-16 7.0247818
0.90373138 -0.05 0.00091853859 -46.827022 -3.8820279e-16 6.915071
0.89752106 -0.05 0.0018338727 -46.396737 9.5422445e-16 6.8064296
0.89130989 -0.05 0.0027433044 -45.961571 9.2255801e-16 6.6983779
0.88509784 -0.05 0.0036468474 -45.521095 -6.9369934e-17 6.5902244
0.87888493 -0.05 0.004544445 -45.073606 2.6239087e-16 6.4823274
0.87267119 -0.05 0.0054362342 -44.62137 1.6638214e-16 6.3756045
0.86645662 -0.05 0.0063222828 -44.164886 1.2289549e-15 6.2687496
0.86024123 -0.05 0.0072025623 -43.705667 -6.306377e-16 6.1628532
0.85402505 -0.05 0.0080771589 -43.24542 -7.3591186e-16 6.0580054
0.84780808 -0.05 0.0089461348 -42.787024 -1.9951928e-16 5.9543957
0.84159032 -0.05 0.0098094764 -42.330476 1.7348995e-16 5.8517367
0.83537177 -0.05 0.010667147 -41.875395 7.5152005e-17 5.7505592
0.82915247 -0.05 0.011519322 -41.422746 3.3543566e-16 5.651284
0.82293242 -0.05 0.012365962 -40.97165 -7.1358782e-16 5.5520889
0.81671161 -0.05 0.013207019 -40.521219 -6.7828035e-16 5.4547529
0.81049005 -0.05 0.014042573 -40.070516 -2.3340815e-16 5.3579934
0.80426776 -0.05 0.014872633 -39.616689 -2.6642779e-16 5.2622769
0.79804474 -0.05 0.015697231 -39.158644 1.25391e-15 5.1665352
0.791821 -0.05 0.016516323 -38.695704 -1.1663524e-16 5.0711192
0.78559655 -0.05 0.017329993 -38.22987 7.562736e-16 4.9763087
0.77937139 -0.05 0.018138207 -37.762741 -1.3381669e-15 4.8815906
0.77314551 -0.05 0.018940934 -37.297782 2.6106158e-16 4.7883152
0.76691893 -0.05 0.019738234 -36.837407 -3.0315794e-16 4.696298
0.76069166 -0.05 0.020530092 -36.382285 5.3891379e-16 4.605712
0.75446371 -0.05 0.0213165 -35.932254 -4.2403251e-16 4.5164834
0.74823506 -0.05 0.022097429 -35.486501 -1.5935615e-15 4.4285297
0.74200573 -0.05 0.022872862 -35.043735 1.1037849e-15 4.3417558
0.73577571 -0.05 0.023642786 -34.602125 1.2991796e-15 4.255922
0.72954501 -0.05 0.024407165 -34.158291 5.6517135e-16 4.1706758
0.72331364 -0.05 0.025166032 -33.70993 -5.3427659e-16 4.0858964
0.71708161 -0.05 0.025919418 -33.255355 1.7633925e-16 4.0007377
0.71084889 -0.05 0.026667147 -32.794264 7.7657865e-16 3.9150224
0.70461549 -0.05 0.027409269 -32.331568 -1.3881005e-15 3.8303396
0.69838144 -0.05 0.028145751 -31.872637 -3.4620284e-16 3.7458303
0.6921467 -0.05 0.0288765 -31.420665 1.7596856e-15 3.6633867
0.6859113 -0.05 0.029601572 -30.97679 1.7320225e-15 3.5822481
0.67967524 -0.05 0.030320869 -30.53947 -1.8309348e-16 3.5026089
0.67343851 -0.05 0.031034401 -30.108247 1.6867847e-15 3.4244168
0.66720112 -0.05 0.031742052 -29.678809 -9.6997778e-16 3.3467918
0.66096304 -0.05 0.03244372 -29.24608 8.7192042e-16 3.2699939
0.65472431 -0.05 0.033139492 -28.804369 -5.2478091e-16 3.1930318
0.64848491 -0.05 0.033829282 -28.350629 -1.5787727e-17 3.1148372
0.64224483 -0.05 0.034512921 -27.887954 -8.7109352e-16 3.0360975
0.63600408 -0.05 0.035190377 -27.425356 -2.9583198e-16 2.9579191
0.62976266 -0.05 0.035861655 -26.969025 -4.5064158e-16 2.8809558
0.62352058 -0.05 0.036526615 -26.518606 9.9257294e-17 2.8049923
0.61727781 -0.05 0.037185174 -26.074382 5.2395312e-16 2.7306396
0.61103437 -0.05 0.037837326 -25.636125 -1.0403591e-15 2.6575107
0.60479024 -0.05 0.038482929 -25.200258 -1.0693187e-15 2.5853909
0.59854544 -0.05 0.03912191 -24.761694 9.5693078e-16 2.5141052
0.59229995 -0.05 0.039754186 -24.310895 5.2912154e-16 2.4423355
0.58605378 -0.05 0.040379665 -23.83997 -2.9643953e-16 2.3693813
0.57980691 -0.05 0.040998232 -23.349155 -5.0494018e-16 2.2945968
0.57355936 -0.05 0.041609743 -22.852101 -4.0665732e-16 2.2196318
0.56731111 -0.05 0.042214163 -22.364696 4.8505003e-16 2.1461677
0.56106217 -0.05 0.042811372 -21.886931 1.9034748e-16 2.0741786
0.55481253 -0.05 0.043401208 -21.419138 4.9562313e-17 2.003906
0.5485622 -0.05 0.043983599 -20.961275 4.1856303e-16 1.9354726
0.54231116 -0.05 0.044558382 -20.510481 -8.174809e-16 1.8685323
0.53605941 -0.05 0.045125419 -20.061071 -1.5573669e-16 1.803228
0.52980696 -0.05 0.045684639 -19.601776 5.168374e-16 1.7385596
0.5235538 -0.05 0.046235869 -19.118717 6.7042487e-16 1.6727421
0.51729993 -0.05 0.046778968 -18.611928 -1.504996e-16 1.6052225
0.51104534 -0.05 0.047313768 -18.109908 4.7706026e-17 1.5382834
0.50479003 -0.05 0.04784013 -17.61581 -4.399491e-16 1.4729282
0.49853402 -0.05 0.048357932 -17.131763 -5.3720375e-16 1.408981
0.49227728 -0.05 0.048866976 -16.66022 7.9717164e-16 1.3465268
0.48601982 -0.05 0.049367058 -16.196495 -5.8041044e-16 1.2853879
0.47976165 -0.05 0.049858054 -15.740412 -9.580539e-16 1.2253721
0.47350275 -0.05 0.050339826 -15.292171 -9.3229655e-17 1.1667917
0.46724313 -0.05 0.050812122 -14.850792 4.113566e-17 1.1097356
0.46098279 -0.05 0.051274731 -14.4161 -7.9762618e-17 1.0542714
0.45472173 -0.05 0.051727486 -13.987487 3.968536e-16 1.000328
0.44845995 -0.05 0.052170207 -13.564938 2.4895182e-16 0.94782791
0.44219745 -0.05 0.052602667 -13.150123 4.5446372e-16 0.89705999
0.43593425 -0.05 0.053024625 -12.747901 -3.42266e-16 0.84800694
0.42967032 -0.05 0.053435871 -12.36035 -2.436779e-16 0.80086992
0.42340568 -0.05 0.053836205 -11.988564 -2.958049e-16 0.75565008
0.41714035 -0.05 0.054225378 -11.631967 2.0764004e-16 0.71225218
0.41087432 -0.05 0.054603114 -11.290086 -1.2821119e-16 0.67049452
0.40460759 -0.05 0.054969185 -10.96603 -4.1352369e-17 0.63044139
0.39834018 -0.05 0.055323309 -10.660559 4.5902279e-16 0.59217712
0.39207208 -0.05 0.055665172 -10.371581 4.2432285e-16 0.55570121
0.38580333 -0.05 0.055994563 -10.096291 -1.4995178e-17 0.52075194
0.37953391 -0.05 0.056311239 -9.8328778 2.6996467e-16 0.48699441
0.37326384 -0.05 0.056614802 -9.5799512 5.3755883e-18 0.45421302
0.36699314 -0.05 0.056904931 -9.3363251 2.9838469e-16 0.42259283
0.36072183 -0.05 0.057181383 -9.1021311 1.375415e-17 0.39192624
0.35444991 -0.05 0.057443823 -8.8766176 -9.3267761e-17 0.3621549
0.3481774 -0.05 0.057691893 -8.6595803 3.4878492e-16 0.33320362
0.34190434 -0.05 0.057925205 -8.4502609 -1.5672887e-16 0.30504073
0.33563072 -0.05 0.058143428 -8.2486783 3.5297476e-17 0.27768755
0.32935659 -0.05 0.058346173 -8.05444 1.6423312e-16 0.25095822
0.32308197 -0.05 0.058533014 -7.8668953 7.8124641e-17 0.22495336
0.31680688 -0.05 0.05870356 -7.6864076 2.6504189e-16 0.19960919
0.31053136 -0.05 0.058857395 -7.5137885 -6.7352457e-17 0.17491161
0.30425544 -0.05 0.058994087 -7.3194902 3.9342845e-17 0.14988483
