# yPlus  FACE_DATA 448
# x y z  yPlus
0.2960265 -0.05 -0.060878482 22.430733
0.29039053 -0.05 -0.060759256 22.621729
0.28483601 -0.05 -0.060627182 22.922705
0.27936182 -0.05 -0.060482448 23.207809
0.27396683 -0.05 -0.0603253 23.485623
0.26864993 -0.05 -0.060156016 23.76012
0.26341004 -0.05 -0.05997485 24.030408
0.2582461 -0.05 -0.059782027 24.295745
0.25315704 -0.05 -0.059577816 24.553833
0.24814182 -0.05 -0.059362445 24.807275
0.24319942 -0.05 -0.059136079 25.055392
0.23832882 -0.05 -0.058898977 25.297982
0.23352904 -0.05 -0.058651364 25.533157
0.22879908 -0.05 -0.058393486 25.759514
0.22413798 -0.05 -0.058125568 25.979513
0.21954478 -0.05 -0.057847764 26.192165
0.21501854 -0.05 -0.057560322 26.394907
0.21055835 -0.05 -0.057263448 26.587276
0.20616329 -0.05 -0.056957259 26.76623
0.20183245 -0.05 -0.056642002 26.935369
0.19756494 -0.05 -0.056317877 27.09813
0.19335991 -0.05 -0.055985097 27.260867
0.18921647 -0.05 -0.055643851 27.426048
0.1851338 -0.05 -0.055294209 27.586417
0.18111104 -0.05 -0.054936407 27.734052
0.17714739 -0.05 -0.054570623 27.86068
0.17324202 -0.05 -0.054197003 27.962846
0.16939414 -0.05 -0.053815739 28.047503
0.16560296 -0.05 -0.053426979 28.134725
0.1618677 -0.05 -0.053030847 28.242179
0.1581876 -0.05 -0.052627461 28.372938
0.15456192 -0.05 -0.052217029 28.519037
0.1509899 -0.05 -0.051799654 28.680492
0.14747083 -0.05 -0.051375464 28.858707
0.14400397 -0.05 -0.050944596 29.060352
0.14058864 -0.05 -0.05050713 29.286416
0.13722412 -0.05 -0.050063213 29.530847
0.13390974 -0.05 -0.049612947 29.784661
0.13064482 -0.05 -0.049156489 30.03938
0.1274287 -0.05 -0.048693936 30.29128
0.12426073 -0.05 -0.048225304 30.535734
0.12114027 -0.05 -0.047750762 30.771612
0.11806666 -0.05 -0.047270421 30.999255
0.11503931 -0.05 -0.046784284 31.216465
0.11205761 -0.05 -0.046292414 31.422563
0.10912097 -0.05 -0.04579493 31.617466
0.10622877 -0.05 -0.045291853 31.801467
0.10338047 -0.05 -0.044783266 31.972916
0.10057546 -0.05 -0.044269312 32.134315
0.097813204 -0.05 -0.043749923 32.285075
0.095093164 -0.05 -0.043225141 32.424536
0.092414784 -0.05 -0.042695097 32.555171
0.089777563 -0.05 -0.042159698 32.676346
0.087180979 -0.05 -0.041618998 32.785754
0.084624519 -0.05 -0.04107305 32.886763
0.082107692 -0.05 -0.040521871 32.97716
0.079630007 -0.05 -0.039965492 33.059639
0.077191019 -0.05 -0.0394038 33.131963
0.074790271 -0.05 -0.038836773 33.193693
0.072427293 -0.05 -0.038264474 33.245521
0.070101643 -0.05 -0.037686913 33.289418
0.067812916 -0.05 -0.037103967 33.325136
0.065560702 -0.05 -0.036515585 33.351598
0.063344592 -0.05 -0.035921754 33.36982
0.06116421 -0.05 -0.035322372 33.377497
0.059019189 -0.05 -0.034717347 33.374247
0.056909167 -0.05 -0.034106606 33.359978
0.054833807 -0.05 -0.033490041 33.334959
0.05279276 -0.05 -0.032867608 33.298353
0.050785737 -0.05 -0.032239111 33.252835
0.048812453 -0.05 -0.03160439 33.193291
0.046872606 -0.05 -0.030963373 33.123942
0.044965948 -0.05 -0.03031587 33.042805
0.043092247 -0.05 -0.02966169 32.951064
0.041251318 -0.05 -0.029000551 32.847603
0.039442964 -0.05 -0.028332254 32.730834
0.037666993 -0.05 -0.027656644 32.601835
0.035923279 -0.05 -0.026973432 32.462418
0.034211728 -0.05 -0.026282308 32.309791
0.032532272 -0.05 -0.025582957 32.145111
0.030884867 -0.05 -0.024875061 31.966246
0.029269516 -0.05 -0.024158267 31.775394
0.027686285 -0.05 -0.023432145 31.570245
0.026135254 -0.05 -0.022696314 31.350724
0.024616582 -0.05 -0.021950295 31.117679
0.023130494 -0.05 -0.021193574 30.868203
0.021677262 -0.05 -0.02042565 30.602917
0.020257285 -0.05 -0.019645902 30.320725
0.018870982 -0.05 -0.018853772 30.017763
0.017518947 -0.05 -0.018048547 29.697686
0.016201858 -0.05 -0.017229485 29.351512
0.014920487 -0.05 -0.01639586 28.9833
0.013675795 -0.05 -0.015546849 28.584146
0.012468929 -0.05 -0.014681619 28.150559
0.01130123 -0.05 -0.013799304 27.674998
0.01017427 -0.05 -0.012898945 27.159821
0.0090898191 -0.05 -0.011979527 26.590522
0.0080499601 -0.05 -0.011040237 25.955724
0.0070571991 -0.05 -0.01008029 25.240084
0.0061142899 -0.05 -0.0090986536 24.42331
0.0052243046 -0.05 -0.0080946629 23.474464
0.0043909781 -0.05 -0.0070682271 22.376866
0.0036181876 -0.05 -0.0060190463 21.088842
0.0029100161 -0.05 -0.0049473779 19.569786
0.0022711761 -0.05 -0.0038546328 17.783782
0.0017062122 -0.05 -0.0027423728 15.669007
0.0012194161 -0.05 -0.0016131796 13.10267
0.0008146358 -0.05 -0.00047116484 9.9957787
0.00049486606 -0.05 0.0006792128 6.927017
0.00026175732 -0.05 0.0018326155 2.5724701
0.0001152767 -0.05 0.0029829848 6.6845256
5.3811434e-05 -0.05 0.0041242853 9.8868943
0.99675369 -0.05 -0.014467014 3.5971312
0.99052482 -0.05 -0.015246108 0.90952409
0.98429506 -0.05 -0.016018199 0.98690541
0.97806445 -0.05 -0.016783312 0.27445694
0.971833 -0.05 -0.017541552 0.72069042
0.96560074 -0.05 -0.018293081 0.58094631
0.95936767 -0.05 -0.01903788 0.68867245
0.95313381 -0.05 -0.019776014 0.66847905
0.94689918 -0.05 -0.020507638 0.70094821
0.9406638 -0.05 -0.021232836 0.70611592
0.93442767 -0.05 -0.021951614 0.72281784
0.92819082 -0.05 -0.022664031 0.73274891
0.92195324 -0.05 -0.023370165 0.74466959
0.91571497 -0.05 -0.024070053 0.76511052
0.90947602 -0.05 -0.024763843 0.79197264
0.90323638 -0.05 -0.025451534 0.83482232
0.89699609 -0.05 -0.026133159 1.0128857
0.89075516 -0.05 -0.026808853 1.0079893
0.88451358 -0.05 -0.02747863 1.0441981
0.87827136 -0.05 -0.028142433 0.9846542
0.87202853 -0.05 -0.028800401 1.0254624
0.86578509 -0.05 -0.029452601 0.95178479
0.85954105 -0.05 -0.030099006 0.98363703
0.85329642 -0.05 -0.030739701 0.94719245
0.84705121 -0.05 -0.03137475 0.93047403
0.84080543 -0.05 -0.03200414 0.88739242
0.83455908 -0.05 -0.032627833 0.82203704
0.82831218 -0.05 -0.033246006 0.7302628
0.82206473 -0.05 -0.033858618 0.59957176
0.81581675 -0.05 -0.034465624 0.39814828
0.80956821 -0.05 -0.035067103 0.26888515
0.80331915 -0.05 -0.035663065 0.52027142
0.79706958 -0.05 -0.036253542 0.67552304
0.79081948 -0.05 -0.036838487 0.81454856
0.78456888 -0.05 -0.037417989 0.94588205
0.77831777 -0.05 -0.037992012 1.072659
0.77206615 -0.05 -0.038560524 1.1968581
0.76581404 -0.05 -0.039123588 1.3197953
0.75956144 -0.05 -0.039681188 1.4419109
0.75330836 -0.05 -0.040233315 1.5654479
0.74705479 -0.05 -0.040779941 1.6911976
0.74080075 -0.05 -0.041321049 1.8200829
0.73454622 -0.05 -0.041856628 1.952383
0.72829123 -0.05 -0.042386638 2.0878931
0.72203577 -0.05 -0.042911116 2.227182
0.71577985 -0.05 -0.043430091 2.3703983
0.70952346 -0.05 -0.043943387 2.5152629
0.70326661 -0.05 -0.044451057 2.6631771
0.69700929 -0.05 -0.044953065 2.8142856
0.69075153 -0.05 -0.045449317 2.9666436
0.68449332 -0.05 -0.045939873 3.1219347
0.67823466 -0.05 -0.046424633 3.2788792
0.67197554 -0.05 -0.046903606 3.4394756
0.66571598 -0.05 -0.047376677 3.6030433
0.65945597 -0.05 -0.047843745 3.7680834
0.65319552 -0.05 -0.048304896 3.9363897
0.64693463 -0.05 -0.048760043 4.1083825
0.6406733 -0.05 -0.049209019 4.2919133
0.63441152 -0.05 -0.049651793 4.4831764
0.6281493 -0.05 -0.050088365 4.6780781
0.62188666 -0.05 -0.0505186 4.8758924
0.61562358 -0.05 -0.050942411 5.0757436
0.60936005 -0.05 -0.051359797 5.2788696
0.60309609 -0.05 -0.051770612 5.4848144
0.59683171 -0.05 -0.052174783 5.6943735
0.5905669 -0.05 -0.052572229 5.9080234
0.58430165 -0.05 -0.052962857 6.125046
0.57803597 -0.05 -0.053346552 6.345793
0.57176987 -0.05 -0.05372317 6.569437
0.56550334 -0.05 -0.054092677 6.7975223
0.5592364 -0.05 -0.054454951 7.030302
0.55296902 -0.05 -0.05480983 7.2672714
0.54670124 -0.05 -0.055157245 7.5087882
0.54043303 -0.05 -0.05549703 7.7552807
0.5341644 -0.05 -0.055829049 8.0061779
0.52789538 -0.05 -0.056153228 8.2628045
0.52162593 -0.05 -0.056469397 8.5246648
0.51535608 -0.05 -0.056777414 8.7913464
0.50908583 -0.05 -0.057077111 9.0628936
0.50281518 -0.05 -0.05736835 9.3438299
0.49654413 -0.05 -0.057651008 9.6502153
0.4902727 -0.05 -0.057924886 9.9941246
0.48400088 -0.05 -0.058189782 10.34606
0.47772869 -0.05 -0.058445571 10.695012
0.47145612 -0.05 -0.058692117 11.044555
0.46518318 -0.05 -0.058929166 11.396795
0.45890989 -0.05 -0.059156505 11.752762
0.45263626 -0.05 -0.059373973 12.110392
0.44636227 -0.05 -0.059581386 12.472372
0.44008795 -0.05 -0.059778519 12.839053
0.43381332 -0.05 -0.059965129 13.210689
0.42753838 -0.05 -0.060141009 13.586864
0.42126313 -0.05 -0.060305958 13.96734
0.4149876 -0.05 -0.060459728 14.352144
0.40871181 -0.05 -0.060602042 14.741565
0.40243576 -0.05 -0.060732673 15.135837
0.39615947 -0.05 -0.06085134 15.534242
0.38988296 -0.05 -0.06095773 15.935455
0.38360626 -0.05 -0.061051631 16.340888
0.37732938 -0.05 -0.061132801 16.751346
0.37105234 -0.05 -0.061200844 17.165692
0.36477517 -0.05 -0.061255437 17.58218
0.35849789 -0.05 -0.061296341 18.002539
0.35222054 -0.05 -0.061323219 18.426814
0.34594314 -0.05 -0.061335715 18.855271
0.33966574 -0.05 -0.061333443 19.286279
0.33338836 -0.05 -0.061316073 19.720008
0.32711103 -0.05 -0.061283216 20.155759
0.32083382 -0.05 -0.061234446 20.592583
0.31455675 -0.05 -0.061169376 21.031515
0.30827987 -0.05 -0.061087592 21.473682
0.30200324 -0.05 -0.06098866 22.021016
0.29827877 -0.05 0.059108285 22.963281
0.29264229 -0.05 0.059200653 22.724504
0.28708672 -0.05 0.059277125 22.413378
0.28161095 -0.05 0.059337932 22.115827
0.27621387 -0.05 0.059383362 21.831242
0.27089436 -0.05 0.059413733 21.559823
0.26565137 -0.05 0.059429341 21.301567
0.26048383 -0.05 0.059430449 21.055477
0.25539069 -0.05 0.059417367 20.821742
0.25037092 -0.05 0.059390363 20.599398
0.2454235 -0.05 0.059349637 20.386693
0.24054744 -0.05 0.059295489 20.182729
0.23574174 -0.05 0.05922818 19.986042
0.23100545 -0.05 0.059147992 19.795946
0.22633757 -0.05 0.059055188 19.613914
0.22173718 -0.05 0.058949956 19.439224
0.21720335 -0.05 0.05883258 19.272386
0.21273516 -0.05 0.058703301 19.113875
0.2083317 -0.05 0.058562268 18.962083
0.20399207 -0.05 0.058409764 18.8174
0.19971542 -0.05 0.05824602 18.679772
0.19550085 -0.05 0.058071283 18.549127
0.19134753 -0.05 0.057885775 18.426301
0.18725461 -0.05 0.057689596 18.30957
0.18322127 -0.05 0.057483015 18.198859
0.17924668 -0.05 0.057266239 18.094815
0.17533004 -0.05 0.057039445 17.995837
0.17147056 -0.05 0.056802855 17.903247
0.16766745 -0.05 0.056556648 17.816117
0.16391996 -0.05 0.056300975 17.734866
0.16022732 -0.05 0.05603598 17.658233
0.15658878 -0.05 0.055761906 17.587178
0.15300362 -0.05 0.055478877 17.522034
0.14947111 -0.05 0.055187053 17.461976
0.14599052 -0.05 0.054886594 17.4078
0.14256117 -0.05 0.05457761 17.357836
0.13918237 -0.05 0.054260271 17.312281
0.13585344 -0.05 0.053934705 17.270978
0.13257368 -0.05 0.053601097 17.233716
0.12934247 -0.05 0.053259567 17.201275
0.12615914 -0.05 0.052910154 17.171872
0.12302306 -0.05 0.052553054 17.146807
0.1199336 -0.05 0.052188399 17.127611
0.11689013 -0.05 0.051816216 17.112032
0.11389208 -0.05 0.051436592 17.100025
0.11093883 -0.05 0.051049666 17.092019
0.1080298 -0.05 0.050655484 17.088084
0.10516441 -0.05 0.050254149 17.085949
0.10234208 -0.05 0.049845825 17.088336
0.099562286 -0.05 0.049430465 17.093717
0.096824468 -0.05 0.049008132 17.100953
0.094128082 -0.05 0.048578977 17.113333
0.091472627 -0.05 0.048142927 17.129379
0.08885758 -0.05 0.047700054 17.146151
0.086282433 -0.05 0.047250431 17.167155
0.083746693 -0.05 0.046794094 17.189614
0.081249873 -0.05 0.046331091 17.217866
0.078791524 -0.05 0.045861326 17.248929
0.076371187 -0.05 0.045384795 17.28254
0.073988397 -0.05 0.044901579 17.318334
0.07164271 -0.05 0.044411703 17.356679
0.069333718 -0.05 0.043915061 17.395238
0.06706101 -0.05 0.043411616 17.433731
0.064824175 -0.05 0.04290137 17.475554
0.062622835 -0.05 0.042384238 17.522556
0.060456619 -0.05 0.041860139 17.574116
0.058325164 -0.05 0.041329015 17.629443
0.056228126 -0.05 0.04079077 17.686764
0.054165158 -0.05 0.040245372 17.744615
0.052135963 -0.05 0.039692638 17.8059
0.050140248 -0.05 0.039132419 17.866032
0.048177712 -0.05 0.038564654 17.932327
0.046248097 -0.05 0.037989162 18.00107
0.044351165 -0.05 0.037405759 18.071724
0.042486721 -0.05 0.036814173 18.142971
0.040654561 -0.05 0.036214212 18.215773
0.038854487 -0.05 0.035605728 18.297993
0.037086361 -0.05 0.034988436 18.393015
0.035350078 -0.05 0.034362033 18.494008
0.033645559 -0.05 0.033726201 18.595748
0.031972749 -0.05 0.033080629 18.695176
0.030331635 -0.05 0.032424961 18.796359
0.02872227 -0.05 0.031758767 18.905476
0.027144716 -0.05 0.031081663 19.020016
0.025599118 -0.05 0.030393163 19.129461
0.024085677 -0.05 0.029692746 19.239756
0.022604649 -0.05 0.0289799 19.365449
0.02115641 -0.05 0.028253993 19.513831
0.019741357 -0.05 0.027514446 19.656141
0.018360055 -0.05 0.026760527 19.756116
0.017013156 -0.05 0.025991471 19.781167
0.015701401 -0.05 0.025206522 19.751767
0.014425725 -0.05 0.024404821 19.699429
0.013187238 -0.05 0.023585492 19.730376
0.01198725 -0.05 0.022747621 19.918877
0.010827294 -0.05 0.02189019 20.278906
0.0097091028 -0.05 0.021012117 20.81028
0.008634726 -0.05 0.020112513 21.526081
0.0076066389 -0.05 0.019190499 22.460011
0.0066275545 -0.05 0.018244941 23.445506
0.0057005177 -0.05 0.017275057 24.312563
0.0048292576 -0.05 0.016280618 24.98155
0.0040176371 -0.05 0.015261178 25.373768
0.0032697463 -0.05 0.014216841 25.466261
0.002590347 -0.05 0.013148841 25.248162
0.0019840396 -0.05 0.012058566 24.682303
0.0014552093 -0.05 0.010948438 23.767323
0.0010078559 -0.05 0.0098224182 22.442989
0.00064513931 -0.05 0.0086848513 20.729702
0.00036890917 -0.05 0.0075410094 18.623254
0.00017935995 -0.05 0.0063969477 16.100148
7.5106536e-05 -0.05 0.0052587579 13.153791
0.99677057 -0.05 -0.013567819 71.255508
0.99057532 -0.05 -0.012555512 62.206858
0.98437893 -0.05 -0.011550172 62.046779
0.97818142 -0.05 -0.010551773 61.889643
0.97198282 -0.05 -0.0095602079 61.707368
0.96578316 -0.05 -0.0085753206 61.504468
0.95958243 -0.05 -0.0075971274 61.290063
0.95338065 -0.05 -0.0066255653 61.062417
0.94717788 -0.05 -0.0056604802 60.827683
0.9409741 -0.05 -0.0047017876 60.585778
0.93476934 -0.05 -0.003749483 60.338746
0.92856362 -0.05 -0.0028035066 60.085879
0.92235694 -0.05 -0.001863782 59.829875
0.91614932 -0.05 -0.0009302744 59.56923
0.90994081 -0.05 -2.833365e-06 59.305008
0.90373138 -0.05 0.00091853859 59.036054
0.89752106 -0.05 0.0018338727 58.763054
0.89130989 -0.05 0.0027433044 58.485513
0.88509784 -0.05 0.0036468474 58.203811
0.87888493 -0.05 0.004544445 57.916295
0.87267119 -0.05 0.0054362342 57.624012
0.86645662 -0.05 0.0063222828 57.327587
0.86024123 -0.05 0.0072025623 57.027971
0.85402505 -0.05 0.0080771589 56.725977
0.84780808 -0.05 0.0089461348 56.423547
0.84159032 -0.05 0.0098094764 56.120956
0.83537177 -0.05 0.010667147 55.817986
0.82915247 -0.05 0.011519322 55.514439
0.82293242 -0.05 0.012365962 55.210816
0.81671161 -0.05 0.013207019 54.905599
0.81049005 -0.05 0.014042573 54.598815
0.80426776 -0.05 0.014872633 54.287962
0.79804474 -0.05 0.015697231 53.97266
0.791821 -0.05 0.016516323 53.651914
0.78559655 -0.05 0.017329993 53.32719
0.77937139 -0.05 0.018138207 52.999744
0.77314551 -0.05 0.018940934 52.671582
0.76691893 -0.05 0.019738234 52.344867
0.76069166 -0.05 0.020530092 52.020055
0.75446371 -0.05 0.0213165 51.696541
0.74823506 -0.05 0.022097429 51.374422
0.74200573 -0.05 0.022872862 51.052432
0.73577571 -0.05 0.023642786 50.729147
0.72954501 -0.05 0.024407165 50.402332
0.72331364 -0.05 0.025166032 50.069837
0.71708161 -0.05 0.025919418 49.730386
0.71084889 -0.05 0.026667147 49.384176
0.70461549 -0.05 0.027409269 49.033782
0.69838144 -0.05 0.028145751 48.684171
0.6921467 -0.05 0.0288765 48.337112
0.6859113 -0.05 0.029601572 47.994189
0.67967524 -0.05 0.030320869 47.653742
0.67343851 -0.05 0.031034401 47.315663
0.66720112 -0.05 0.031742052 46.976772
0.66096304 -0.05 0.03244372 46.632652
0.65472431 -0.05 0.033139492 46.27887
0.64848491 -0.05 0.033829282 45.912722
0.64224483 -0.05 0.034512921 45.536239
0.63600408 -0.05 0.035190377 45.156825
0.62976266 -0.05 0.035861655 44.779156
0.62352058 -0.05 0.036526615 44.403403
0.61727781 -0.05 0.037185174 44.029677
0.61103437 -0.05 0.037837326 43.658079
0.60479024 -0.05 0.038482929 43.285192
0.59854544 -0.05 0.03912191 42.906689
0.59229995 -0.05 0.039754186 42.514438
0.58605378 -0.05 0.040379665 42.100731
0.57980691 -0.05 0.040998232 41.665008
0.57355936 -0.05 0.041609743 41.219082
0.56731111 -0.05 0.042214163 40.77699
0.56106217 -0.05 0.042811372 40.339016
0.55481253 -0.05 0.043401208 39.905436
0.5485622 -0.05 0.043983599 39.476538
0.54231116 -0.05 0.044558382 39.049797
0.53605941 -0.05 0.045125419 38.619744
0.52980696 -0.05 0.045684639 38.17533
0.5235538 -0.05 0.046235869 37.702297
0.51729993 -0.05 0.046778968 37.199525
0.51104534 -0.05 0.047313768 36.694729
0.50479003 -0.05 0.04784013 36.190865
0.49853402 -0.05 0.048357932 35.690484
0.49227728 -0.05 0.048866976 35.195987
0.48601982 -0.05 0.049367058 34.70305
0.47976165 -0.05 0.049858054 34.211069
0.47350275 -0.05 0.050339826 33.720699
0.46724313 -0.05 0.050812122 33.23086
0.46098279 -0.05 0.051274731 32.741333
0.45472173 -0.05 0.051727486 32.251169
0.44845995 -0.05 0.052170207 31.760715
0.44219745 -0.05 0.052602667 31.271632
0.43593425 -0.05 0.053024625 30.790135
0.42967032 -0.05 0.053435871 30.318804
0.42340568 -0.05 0.053836205 29.859879
0.41714035 -0.05 0.054225378 29.412976
0.41087432 -0.05 0.054603114 28.978084
0.40460759 -0.05 0.054969185 28.559439
0.39834018 -0.05 0.055323309 28.159335
0.39207208 -0.05 0.055665172 27.775437
0.38580333 -0.05 0.055994563 27.40485
0.37953391 -0.05 0.056311239 27.045157
0.37326384 -0.05 0.056614802 26.69543
0.36699314 -0.05 0.056904931 26.353918
0.36072183 -0.05 0.057181383 26.021514
0.35444991 -0.05 0.057443823 25.696917
0.3481774 -0.05 0.057691893 25.380889
0.34190434 -0.05 0.057925205 25.072094
0.33563072 -0.05 0.058143428 24.771164
0.32935659 -0.05 0.058346173 24.477441
0.32308197 -0.05 0.058533014 24.190623
0.31680688 -0.05 0.05870356 23.911208
0.31053136 -0.05 0.058857395 23.641274
0.30425544 -0.05 0.058994087 23.276316
