# Force         
# CofR          : (2.50000000e-01 0.00000000e+00 0.00000000e+00)
#
# Time          	(total_x total_y total_z)	(pressure_x pressure_y pressure_z)	(viscous_x viscous_y viscous_z)
2.39808e-06     	(1.35086555e+02 -6.51302800e-17 -1.22851434e-01)	(1.31662286e+02 -6.51082076e-17 -1.24087041e-01)	(3.42426919e+00 -2.20723747e-20 1.23560671e-03)
5.27302e-06     	(1.55861054e+02 2.06739485e-16 -2.96467835e-01)	(1.52482601e+02 2.07017765e-16 -3.01206989e-01)	(3.37845285e+00 -2.78280034e-19 4.73915412e-03)
8.72693e-06     	(1.46782349e+02 -5.42131575e-17 -6.86150461e-02)	(1.43424114e+02 -5.47053768e-17 -7.80055270e-02)	(3.35823558e+00 4.92219356e-19 9.39048086e-03)
1.28745e-05     	(1.40450071e+02 -2.06021704e-17 -6.74732661e-02)	(1.37109805e+02 -2.08037429e-17 -8.23110942e-02)	(3.34026605e+00 2.01572451e-19 1.48378281e-02)
1.786e-05       	(1.38337681e+02 6.63518680e-17 -1.44311826e-01)	(1.35018113e+02 6.74963159e-17 -1.65691719e-01)	(3.31956795e+00 -1.14444791e-18 2.13798928e-02)
2.38487e-05     	(1.35371317e+02 1.46461245e-16 -9.88315926e-03)	(1.32074672e+02 1.47465873e-16 -3.88523889e-02)	(3.29664551e+00 -1.00462740e-18 2.89692296e-02)
3.10262e-05     	(1.31590989e+02 6.40516608e-17 2.19059688e-01)	(1.28319713e+02 6.52863415e-17 1.81262384e-01)	(3.27127611e+00 -1.23468070e-18 3.77973041e-02)
3.96012e-05     	(1.27419761e+02 2.25356678e-16 1.41777602e-01)	(1.24176529e+02 2.26919205e-16 9.36333993e-02)	(3.24323146e+00 -1.56252704e-18 4.81442031e-02)
4.99281e-05     	(1.22957212e+02 3.51466146e-17 9.67524449e-02)	(1.19745047e+02 3.52562083e-17 3.65060287e-02)	(3.21216477e+00 -1.09593641e-19 6.02464162e-02)
6.22667e-05     	(1.18087654e+02 -3.84540527e-17 1.32114099e-01)	(1.14909245e+02 -3.88605421e-17 5.80471187e-02)	(3.17840895e+00 4.06489409e-19 7.40669799e-02)
7.71513e-05     	(1.12831860e+02 6.80999583e-17 4.10745273e-01)	(1.09689635e+02 6.68440300e-17 3.20871144e-01)	(3.14222570e+00 1.25592826e-18 8.98741289e-02)
9.48984e-05     	(1.07521835e+02 -1.34935326e-16 2.89602446e-01)	(1.04417139e+02 -1.37282689e-16 1.81908807e-01)	(3.10469606e+00 2.34736326e-18 1.07693638e-01)
0.000115947     	(1.02284769e+02 9.01284467e-17 2.86040305e-01)	(9.92164181e+01 9.26659278e-17 1.58645158e-01)	(3.06835048e+00 -2.53748106e-18 1.27395147e-01)
0.000141206     	(9.68622342e+01 -4.70924608e-17 2.42953725e-01)	(9.38256828e+01 -4.67855576e-17 9.39324949e-02)	(3.03655141e+00 -3.06903222e-19 1.49021230e-01)
0.000171877     	(9.12812193e+01 -1.34689621e-16 4.05815836e-01)	(8.82682124e+01 -1.41258053e-16 2.33327737e-01)	(3.01300686e+00 6.56843203e-18 1.72488099e-01)
0.000207883     	(8.55996856e+01 -1.14326086e-16 4.48241626e-01)	(8.25976359e+01 -1.16213064e-16 2.51720705e-01)	(3.00204971e+00 1.88697786e-18 1.96520921e-01)
0.000251889     	(7.97545840e+01 -8.09221344e-17 6.52339664e-01)	(7.67482093e+01 -8.49371904e-17 4.30995029e-01)	(3.00637472e+00 4.01505602e-18 2.21344635e-01)
0.000305326     	(7.38243189e+01 -1.51118842e-16 7.92363429e-01)	(7.07939846e+01 -1.55125688e-16 5.46416975e-01)	(3.03033431e+00 4.00684600e-18 2.45946455e-01)
0.000368478     	(6.79974435e+01 -3.03508707e-17 1.04957710e+00)	(6.49222552e+01 -3.14864426e-17 7.81032590e-01)	(3.07518831e+00 1.13557192e-18 2.68544509e-01)
0.000438647     	(6.24446259e+01 8.81223043e-17 1.30680500e+00)	(5.93065938e+01 9.14070656e-17 1.01937108e+00)	(3.13803210e+00 -3.28476131e-18 2.87433913e-01)
0.00051884      	(5.69642280e+01 -2.19691977e-16 1.52442660e+00)	(5.37463687e+01 -2.26270175e-16 1.22113506e+00)	(3.21785935e+00 6.57819776e-18 3.03291547e-01)
0.000599034     	(5.21127748e+01 -3.09961575e-17 1.81492543e+00)	(4.88139440e+01 -2.41808537e-17 1.50015038e+00)	(3.29883081e+00 -6.81530380e-18 3.14775049e-01)
0.000679227     	(4.77738451e+01 -1.11748676e-16 2.10432159e+00)	(4.43987120e+01 -1.12020216e-16 1.78081639e+00)	(3.37513308e+00 2.71540166e-19 3.23505202e-01)
0.00075942      	(4.38316705e+01 2.00775630e-17 2.41588280e+00)	(4.03895854e+01 2.65512129e-17 2.08556645e+00)	(3.44208515e+00 -6.47364987e-18 3.30316351e-01)
0.000839613     	(4.02095892e+01 -9.86224395e-17 2.71831925e+00)	(3.67109006e+01 -9.94071735e-17 2.38262723e+00)	(3.49868866e+00 7.84733992e-19 3.35692012e-01)
0.000919807     	(3.68430756e+01 -1.21571146e-16 3.03162089e+00)	(3.32972803e+01 -1.19242265e-16 2.69164599e+00)	(3.54579524e+00 -2.32888100e-18 3.39974896e-01)
0.001           	(3.37178832e+01 -2.04667493e-16 3.33543528e+00)	(3.01333255e+01 -2.05598933e-16 2.99198598e+00)	(3.58455771e+00 9.31439138e-19 3.43449300e-01)
0.00108333      	(3.07107020e+01 -2.66925236e-17 3.65467337e+00)	(2.70933015e+01 -3.60538840e-17 3.30826084e+00)	(3.61740045e+00 9.36136040e-18 3.46412527e-01)
0.00116667      	(2.79310557e+01 4.78780912e-17 3.96173967e+00)	(2.42868685e+01 5.71569549e-17 3.61287445e+00)	(3.64418716e+00 -9.27886363e-18 3.48865213e-01)
0.00125         	(2.53579091e+01 -1.40703954e-16 4.26010161e+00)	(2.16917523e+01 -1.49407712e-16 3.90917382e+00)	(3.66615673e+00 8.70375808e-18 3.50927787e-01)
0.00133333      	(2.29644969e+01 1.80352443e-16 4.55180174e+00)	(1.92802398e+01 1.86419286e-16 4.19910798e+00)	(3.68425712e+00 -6.06684283e-18 3.52693757e-01)
0.00141667      	(2.07315440e+01 8.87043361e-17 4.83512548e+00)	(1.70322959e+01 9.11856354e-17 4.48089415e+00)	(3.69924808e+00 -2.48129931e-18 3.54231327e-01)
0.0015          	(1.86472088e+01 1.23315292e-16 5.11044065e+00)	(1.49355147e+01 1.22644839e-16 4.75484828e+00)	(3.71169417e+00 6.70452487e-19 3.55592367e-01)
0.00158333      	(1.66972098e+01 2.86193356e-17 5.37610098e+00)	(1.29752114e+01 3.58076452e-17 5.01929549e+00)	(3.72199847e+00 -7.18830965e-18 3.56805493e-01)
0.00166667      	(1.48746983e+01 -1.48634510e-16 5.63165497e+00)	(1.11442351e+01 -1.53931045e-16 5.27376223e+00)	(3.73046318e+00 5.29653486e-18 3.57892741e-01)
0.00175         	(1.31737029e+01 6.60371235e-17 5.87547740e+00)	(9.43641229e+00 6.70958042e-17 5.51661727e+00)	(3.73729057e+00 -1.05868068e-18 3.58860128e-01)
0.00183333      	(1.15906844e+01 -2.05934831e-16 6.10764897e+00)	(7.84806681e+00 -2.08526605e-16 5.74793607e+00)	(3.74261760e+00 2.59177470e-18 3.59712906e-01)
0.00191667      	(1.01251165e+01 -8.05063222e-17 6.32758003e+00)	(6.37858476e+00 -7.86295849e-17 5.96713566e+00)	(3.74653177e+00 -1.87673728e-18 3.60444376e-01)
0.002           	(8.77666859e+00 -5.97039989e-17 6.53442728e+00)	(5.02760424e+00 -5.91497526e-17 6.17337796e+00)	(3.74906435e+00 -5.54246371e-19 3.61049321e-01)
0.00207877      	(7.60961173e+00 -4.53207789e-17 6.71698732e+00)	(3.85932569e+00 -4.68199238e-17 6.35550110e+00)	(3.75028604e+00 1.49914485e-18 3.61486217e-01)
0.00215754      	(6.54852740e+00 9.20827317e-17 6.89088262e+00)	(2.79820391e+00 9.38087237e-17 6.52908508e+00)	(3.75032349e+00 -1.72599194e-18 3.61797546e-01)
0.00223631      	(5.59590252e+00 1.03663517e-16 7.05016468e+00)	(1.84663214e+00 1.05625023e-16 6.68817349e+00)	(3.74927037e+00 -1.96150611e-18 3.61991195e-01)
0.00231508      	(4.74834031e+00 8.00614206e-17 7.19696896e+00)	(1.00122577e+00 7.58890284e-17 6.83491236e+00)	(3.74711455e+00 4.17239216e-18 3.62056601e-01)
0.00239385      	(4.00383288e+00 2.41722450e-17 7.33416551e+00)	(2.59884172e-01 2.92007342e-17 6.97217200e+00)	(3.74394871e+00 -5.02848921e-18 3.61993510e-01)
0.00247262      	(3.35731207e+00 -7.73460235e-17 7.45727914e+00)	(-3.82567072e-01 -7.69665686e-17 7.09546810e+00)	(3.73987914e+00 -3.79454861e-19 3.61811040e-01)
0.00255139      	(2.80190312e+00 5.86381690e-17 7.57519398e+00)	(-9.33147100e-01 5.98520390e-17 7.21367673e+00)	(3.73505022e+00 -1.21386998e-18 3.61517252e-01)
0.00263016      	(2.33075066e+00 1.17610765e-17 7.68396128e+00)	(-1.39888920e+00 4.31558341e-18 7.32282410e+00)	(3.72963986e+00 7.44549309e-18 3.61137175e-01)
0.00270894      	(1.93550032e+00 1.56716439e-16 7.78614511e+00)	(-1.78823320e+00 1.54681357e-16 7.42547668e+00)	(3.72373352e+00 2.03508166e-18 3.60668426e-01)
0.00278771      	(1.60879938e+00 -2.08352878e-16 7.87998610e+00)	(-2.10867632e+00 -2.18677584e-16 7.51984149e+00)	(3.71747570e+00 1.03247055e-17 3.60144615e-01)
0.00286648      	(1.34294078e+00 -1.11260116e-16 7.97192218e+00)	(-2.36808877e+00 -1.14564716e-16 7.61236592e+00)	(3.71102956e+00 3.30460097e-18 3.59556259e-01)
0.00294525      	(1.13185076e+00 -2.51444209e-16 8.05790236e+00)	(-2.57256654e+00 -2.70773994e-16 7.69895755e+00)	(3.70441729e+00 1.93297851e-17 3.58944812e-01)
0.00302402      	(9.70283995e-01 2.13978600e-17 8.13975594e+00)	(-2.72761085e+00 2.36446549e-17 7.78146875e+00)	(3.69789485e+00 -2.24679484e-18 3.58287195e-01)
0.00310279      	(8.54122030e-01 -1.35554966e-16 8.21510641e+00)	(-2.83715589e+00 -1.48680237e-16 7.85747146e+00)	(3.69127792e+00 1.31252701e-17 3.57634949e-01)
0.00318156      	(7.79927042e-01 1.22327016e-16 8.28528146e+00)	(-2.90499881e+00 1.18825094e-16 7.92834281e+00)	(3.68492585e+00 3.50192205e-18 3.56938651e-01)
0.00326033      	(7.43554252e-01 -1.49121492e-16 8.35160877e+00)	(-2.93490917e+00 -1.52023890e-16 7.99533431e+00)	(3.67846342e+00 2.90239769e-18 3.56274457e-01)
0.0033391       	(7.44192358e-01 5.33439799e-17 8.41227881e+00)	(-2.92821123e+00 5.44875489e-17 8.05672226e+00)	(3.67240359e+00 -1.14356902e-18 3.55556547e-01)
0.00341787      	(7.77057902e-01 -1.35268823e-16 8.46848654e+00)	(-2.88908877e+00 -1.43523832e-16 8.11359316e+00)	(3.66614667e+00 8.25500925e-18 3.54893388e-01)
0.00349664      	(8.39477670e-01 -3.89528480e-17 8.51885297e+00)	(-2.82090884e+00 -3.95647225e-17 8.16468418e+00)	(3.66038651e+00 6.11874487e-19 3.54168790e-01)
0.00357541      	(9.27027120e-01 7.72082117e-17 8.56617728e+00)	(-2.72734157e+00 8.61060487e-17 8.21266377e+00)	(3.65436869e+00 -8.89783701e-18 3.53513510e-01)
0.00365418      	(1.03593285e+00 8.11933850e-17 8.60887236e+00)	(-2.61294789e+00 8.79114735e-17 8.25607710e+00)	(3.64888075e+00 -6.71808853e-18 3.52795263e-01)
0.00373295      	(1.16278607e+00 7.27787183e-17 8.66461891e+00)	(-2.48036143e+00 7.39477993e-17 8.31247256e+00)	(3.64314750e+00 -1.16908103e-18 3.52146349e-01)
0.00381172      	(1.29951165e+00 2.20816268e-16 8.70364077e+00)	(-2.33842284e+00 2.17905982e-16 8.35220116e+00)	(3.63793449e+00 2.91028516e-18 3.51439606e-01)
0.00389049      	(1.44359086e+00 1.14918164e-17 8.73838370e+00)	(-2.18888812e+00 1.63320164e-17 8.38758487e+00)	(3.63247898e+00 -4.84020006e-18 3.50798824e-01)
0.00396926      	(1.59063904e+00 -9.44027798e-17 8.76797433e+00)	(-2.03684602e+00 -9.97040260e-17 8.41786388e+00)	(3.62748507e+00 5.30124626e-18 3.50110456e-01)
0.00404803      	(1.73664044e+00 3.07848323e-17 8.79552555e+00)	(-1.88560182e+00 3.35491317e-17 8.44605179e+00)	(3.62224225e+00 -2.76429937e-18 3.49473766e-01)
0.00412681      	(1.87891262e+00 4.42411685e-17 8.81965948e+00)	(-1.73851125e+00 4.57873091e-17 8.47085801e+00)	(3.61742388e+00 -1.54614057e-18 3.48801471e-01)
0.00420558      	(2.01496168e+00 -3.51550357e-16 8.84053815e+00)	(-1.59742053e+00 -3.68700935e-16 8.49236859e+00)	(3.61238221e+00 1.71505776e-17 3.48169566e-01)
0.00428435      	(2.14398753e+00 -7.67011846e-17 8.85906127e+00)	(-1.46370727e+00 -7.67938597e-17 8.51155318e+00)	(3.60769480e+00 9.26751101e-20 3.47508091e-01)
0.00436312      	(2.26431570e+00 3.77518727e-17 8.87423219e+00)	(-1.33845737e+00 4.55000128e-17 8.52736112e+00)	(3.60277307e+00 -7.74814020e-18 3.46871063e-01)
0.00444189      	(2.37685180e+00 -1.10526316e-17 8.88747354e+00)	(-1.22123029e+00 -8.37681453e-18 8.54127293e+00)	(3.59808209e+00 -2.67581707e-18 3.46200620e-01)
0.00452066      	(2.48010976e+00 -1.67232327e-16 8.89718357e+00)	(-1.11310295e+00 -1.83427682e-16 8.55163960e+00)	(3.59321271e+00 1.61953544e-17 3.45543967e-01)
0.00459943      	(2.57607318e+00 -1.79914862e-16 8.90463098e+00)	(-1.01252562e+00 -1.93650056e-16 8.55976112e+00)	(3.58859880e+00 1.37351942e-17 3.44869858e-01)
0.0046782       	(2.66466691e+00 7.04195233e-17 8.90951332e+00)	(-9.19160731e-01 7.63428395e-17 8.56531367e+00)	(3.58382764e+00 -5.92331624e-18 3.44199653e-01)
0.00475697      	(2.74613910e+00 -4.95073364e-17 8.91176285e+00)	(-8.33104442e-01 -6.04231916e-17 8.56824591e+00)	(3.57924355e+00 1.09158552e-17 3.43516932e-01)
0.0048337       	(2.81938925e+00 7.08785785e-17 8.90733241e+00)	(-7.55283186e-01 7.48884350e-17 8.56448581e+00)	(3.57467243e+00 -4.00985652e-18 3.42846601e-01)
0.00491042      	(2.88826026e+00 -6.68122793e-17 8.90617714e+00)	(-6.81977080e-01 -7.23133517e-17 8.56400565e+00)	(3.57023734e+00 5.50107244e-18 3.42171488e-01)
0.00498715      	(2.95310027e+00 -2.91704001e-17 8.90437383e+00)	(-6.12604615e-01 -3.34326284e-17 8.56288807e+00)	(3.56570488e+00 4.26222835e-18 3.41485760e-01)
0.00506452      	(3.01447145e+00 1.13138602e-16 8.90166510e+00)	(-5.46754117e-01 1.13365778e-16 8.56086623e+00)	(3.56122557e+00 -2.27175280e-19 3.40798879e-01)
0.00514188      	(3.07209759e+00 -3.65236019e-16 8.89764633e+00)	(-4.84576051e-01 -3.73800762e-16 8.55754089e+00)	(3.55667364e+00 8.56474381e-18 3.40105448e-01)
0.00521925      	(3.12715388e+00 8.91284518e-17 8.89293010e+00)	(-4.25044327e-01 9.41368780e-17 8.55350540e+00)	(3.55219821e+00 -5.00842616e-18 3.39424692e-01)
0.00529662      	(3.17907736e+00 -7.39418652e-17 8.88669170e+00)	(-3.68588667e-01 -7.85062453e-17 8.54796463e+00)	(3.54766602e+00 4.56438002e-18 3.38727068e-01)
0.00537399      	(3.22885991e+00 -1.21271728e-16 8.88027565e+00)	(-3.14328044e-01 -1.15208882e-16 8.54223477e+00)	(3.54318796e+00 -6.06284605e-18 3.38040881e-01)
0.00545136      	(3.27601330e+00 1.31377344e-16 8.87315159e+00)	(-2.62646921e-01 1.32366059e-16 8.53581986e+00)	(3.53866022e+00 -9.88714897e-19 3.37331732e-01)
0.00552873      	(3.32119971e+00 -4.88441260e-17 8.86625415e+00)	(-2.12966427e-01 -5.55083486e-17 8.52961707e+00)	(3.53416614e+00 6.66422264e-18 3.36637083e-01)
0.0056061       	(3.36435451e+00 4.37965487e-18 8.85908330e+00)	(-1.65275164e-01 1.29613409e-17 8.52316855e+00)	(3.52962968e+00 -8.58168600e-18 3.35914755e-01)
0.00568347      	(3.40531447e+00 5.41401652e-17 8.85126649e+00)	(-1.19799259e-01 7.03362699e-17 8.51605562e+00)	(3.52511373e+00 -1.61961047e-17 3.35210874e-01)
0.00576084      	(3.44424337e+00 1.07954501e-16 8.84403102e+00)	(-7.63173525e-02 1.10340605e-16 8.50955530e+00)	(3.52056072e+00 -2.38610388e-18 3.34475723e-01)
0.00583821      	(3.48146569e+00 2.19677148e-16 8.83664335e+00)	(-3.45425481e-02 2.26217237e-16 8.50288203e+00)	(3.51600824e+00 -6.54008896e-18 3.33761327e-01)
0.00591558      	(3.51650446e+00 -1.45535500e-16 8.82955908e+00)	(5.07545984e-03 -1.47581275e-16 8.49654604e+00)	(3.51142900e+00 2.04577434e-18 3.33013046e-01)
0.00599295      	(3.54989656e+00 -2.41601762e-17 8.82271833e+00)	(4.30594398e-02 -2.63725220e-17 8.49042973e+00)	(3.50683712e+00 2.21234576e-18 3.32288596e-01)
0.00607032      	(3.58138712e+00 4.64367061e-17 8.81646924e+00)	(7.91664461e-02 5.22979078e-17 8.48494262e+00)	(3.50222068e+00 -5.86120177e-18 3.31526620e-01)
0.00614769      	(3.61118084e+00 9.67754524e-17 8.81023916e+00)	(1.13598914e-01 9.90860078e-17 8.47944736e+00)	(3.49758193e+00 -2.31055537e-18 3.30791797e-01)
0.00622506      	(3.63896958e+00 -2.20737048e-16 8.80493541e+00)	(1.46045874e-01 -2.21740425e-16 8.47491916e+00)	(3.49292371e+00 1.00337662e-18 3.30016246e-01)
0.00630242      	(3.66519175e+00 1.38218130e-17 8.79999747e+00)	(1.76963032e-01 1.39454090e-17 8.47072769e+00)	(3.48822872e+00 -1.23595958e-19 3.29269783e-01)
0.00637979      	(3.68952635e+00 2.16406657e-16 8.79550884e+00)	(2.06007314e-01 2.28062877e-16 8.46702920e+00)	(3.48351903e+00 -1.16562193e-17 3.28479644e-01)
0.00645716      	(3.71216258e+00 1.72439384e-16 8.79310424e+00)	(2.33391431e-01 1.68057015e-16 8.46538149e+00)	(3.47877115e+00 4.38236857e-18 3.27722751e-01)
0.00653453      	(3.73310976e+00 7.50413462e-17 8.78954540e+00)	(2.59079976e-01 7.59477364e-17 8.46262300e+00)	(3.47402978e+00 -9.06390158e-19 3.26922402e-01)
0.0066119       	(3.75234240e+00 -1.02684820e-16 8.78550551e+00)	(2.83099328e-01 -1.04952752e-16 8.45934550e+00)	(3.46924307e+00 2.26793212e-18 3.26160008e-01)
0.00668927      	(3.77021852e+00 1.95726518e-16 8.78513240e+00)	(3.05753274e-01 2.00295264e-16 8.45978132e+00)	(3.46446524e+00 -4.56874660e-18 3.25351073e-01)
0.00676664      	(3.78665230e+00 -4.14498173e-17 8.78231163e+00)	(3.27018792e-01 -4.00937197e-17 8.45772818e+00)	(3.45963351e+00 -1.35609758e-18 3.24583445e-01)
0.00684401      	(3.80180344e+00 1.20646852e-16 8.78204025e+00)	(3.46992085e-01 1.19819533e-16 8.45827527e+00)	(3.45481136e+00 8.27319147e-19 3.23764984e-01)
0.00692138      	(3.81576363e+00 -5.85625580e-17 8.78208563e+00)	(3.65864443e-01 -6.62247443e-17 8.45909685e+00)	(3.44989919e+00 7.66218629e-18 3.22988781e-01)
0.00699875      	(3.82854960e+00 -1.05999316e-16 8.78309019e+00)	(3.83559201e-01 -1.09758607e-16 8.46093355e+00)	(3.44499039e+00 3.75929121e-18 3.22156645e-01)
0.00707612      	(3.84028230e+00 -9.42899307e-17 8.78483548e+00)	(4.00325524e-01 -1.00840140e-16 8.46346723e+00)	(3.43995678e+00 6.55020975e-18 3.21368251e-01)
0.00715349      	(3.85113988e+00 -1.13244282e-16 8.78717661e+00)	(4.16211355e-01 -1.28755809e-16 8.46665631e+00)	(3.43492853e+00 1.55115264e-17 3.20520295e-01)
0.00723086      	(3.86106924e+00 2.00228431e-16 8.79001804e+00)	(4.31316200e-01 2.07470699e-16 8.47029907e+00)	(3.42975304e+00 -7.24226754e-18 3.19718964e-01)
0.00730823      	(3.87015941e+00 2.78224588e-17 8.79388931e+00)	(4.45556256e-01 2.67333825e-17 8.47503393e+00)	(3.42460316e+00 1.08907632e-18 3.18855380e-01)
0.0073856       	(3.87844461e+00 -1.15314620e-16 8.79822760e+00)	(4.59146658e-01 -1.17291809e-16 8.48018483e+00)	(3.41929795e+00 1.97718894e-18 3.18042770e-01)
0.00746297      	(3.88608743e+00 9.67231533e-18 8.80314733e+00)	(4.72033232e-01 2.85860379e-18 8.48598158e+00)	(3.41405420e+00 6.81371155e-18 3.17165753e-01)
0.00754033      	(3.89302389e+00 6.59016625e-17 8.80852405e+00)	(4.84368122e-01 6.55892242e-17 8.49217911e+00)	(3.40865577e+00 3.12438267e-19 3.16344941e-01)
0.0076177       	(3.89942661e+00 -8.52249573e-17 8.81521727e+00)	(4.96070561e-01 -9.09495673e-17 8.49976022e+00)	(3.40335605e+00 5.72460997e-18 3.15457054e-01)
0.00769507      	(3.90521824e+00 -2.24769051e-18 8.82209874e+00)	(5.07324133e-01 -8.32702114e-19 8.50746844e+00)	(3.39789411e+00 -1.41498840e-18 3.14630298e-01)
0.00777244      	(3.91061385e+00 2.36406139e-16 8.82991120e+00)	(5.18048875e-01 2.40363179e-16 8.51617689e+00)	(3.39256498e+00 -3.95704027e-18 3.13734309e-01)
0.00784981      	(3.91545599e+00 -1.32028091e-16 8.83928902e+00)	(5.28366016e-01 -1.35320504e-16 8.52638056e+00)	(3.38708997e+00 3.29241271e-18 3.12908455e-01)
0.00792718      	(3.92004002e+00 -3.15875324e-16 8.84770414e+00)	(5.38237927e-01 -3.14070463e-16 8.53568889e+00)	(3.38180209e+00 -1.80486071e-18 3.12015245e-01)
0.00800455      	(3.92395893e+00 -3.86952884e-17 8.85835158e+00)	(5.47633311e-01 -3.49111756e-17 8.54715731e+00)	(3.37632561e+00 -3.78411280e-18 3.11194276e-01)
0.00808192      	(3.92765546e+00 -1.32548397e-16 8.86886798e+00)	(5.56618877e-01 -1.37426384e-16 8.55856878e+00)	(3.37103659e+00 4.87798741e-18 3.10299192e-01)
0.00815929      	(3.93068641e+00 1.94274819e-16 8.88054608e+00)	(5.65170897e-01 1.98625178e-16 8.57106813e+00)	(3.36551551e+00 -4.35035909e-18 3.09477950e-01)
0.00823666      	(3.93358445e+00 1.43277810e-16 8.89393564e+00)	(5.73387211e-01 1.43744479e-16 8.58535868e+00)	(3.36019724e+00 -4.66669530e-19 3.08576964e-01)
0.00831403      	(3.93588176e+00 -2.80903050e-17 8.90655563e+00)	(5.81267699e-01 -2.47659592e-17 8.59880270e+00)	(3.35461406e+00 -3.32434581e-18 3.07752931e-01)
0.0083914       	(3.93796871e+00 1.82231218e-17 8.91969239e+00)	(5.88714378e-01 2.02897189e-17 8.61284761e+00)	(3.34925433e+00 -2.06659717e-18 3.06844788e-01)
0.00846877      	(3.93953353e+00 -9.87345566e-17 8.93367926e+00)	(5.95928372e-01 -1.03220994e-16 8.62766246e+00)	(3.34360516e+00 4.48643782e-18 3.06016801e-01)
0.00854614      	(3.94115125e+00 1.36097314e-16 8.94761367e+00)	(6.02945240e-01 1.40049224e-16 8.64251241e+00)	(3.33820601e+00 -3.95191071e-18 3.05101262e-01)
0.00862351      	(3.94222271e+00 -1.58128693e-16 8.96312813e+00)	(6.09732925e-01 -1.65108944e-16 8.65885945e+00)	(3.33248978e+00 6.98025047e-18 3.04268680e-01)
0.00870087      	(3.94340578e+00 5.55076248e-17 8.97843437e+00)	(6.16361548e-01 6.50552950e-17 8.67508977e+00)	(3.32704423e+00 -9.54767017e-18 3.03344599e-01)
0.00877824      	(3.94409382e+00 1.66320091e-16 8.99418680e+00)	(6.22864096e-01 1.76209856e-16 8.69168131e+00)	(3.32122972e+00 -9.88976492e-18 3.02505484e-01)
0.00885561      	(3.94478764e+00 -2.14380703e-17 9.01044026e+00)	(6.29124576e-01 -2.61583049e-17 8.70887256e+00)	(3.31566306e+00 4.72023461e-18 3.01567691e-01)
0.00893298      	(3.94491976e+00 1.00809574e-17 9.02736411e+00)	(6.35267485e-01 9.02836154e-18 8.72664944e+00)	(3.30965227e+00 1.05259583e-18 3.00714665e-01)
0.00901035      	(3.94501784e+00 1.00728633e-16 9.04426742e+00)	(6.41139956e-01 9.73122200e-17 8.74451047e+00)	(3.30387788e+00 3.41641258e-18 2.99756951e-01)
0.00908772      	(3.94453990e+00 1.12312954e-18 9.06194857e+00)	(6.46926514e-01 6.51422066e-19 8.76306300e+00)	(3.29761338e+00 4.71707478e-19 2.98885566e-01)
0.00916509      	(3.94401147e+00 -2.49707035e-16 9.07953277e+00)	(6.52407930e-01 -2.55743251e-16 8.78162725e+00)	(3.29160354e+00 6.03621597e-18 2.97905525e-01)
0.00924246      	(3.94280592e+00 -9.96800670e-17 9.09828050e+00)	(6.57721537e-01 -1.02135283e-16 8.80126568e+00)	(3.28508438e+00 2.45521581e-18 2.97014813e-01)
0.00931983      	(3.94169059e+00 1.90490281e-16 9.11627542e+00)	(6.62834044e-01 2.00807910e-16 8.82026246e+00)	(3.27885655e+00 -1.03176286e-17 2.96012958e-01)
0.0093972       	(3.93999766e+00 -1.10549711e-16 9.13485565e+00)	(6.67887146e-01 -1.16506986e-16 8.83975117e+00)	(3.27211052e+00 5.95727495e-18 2.95104477e-01)
0.00947457      	(3.93854706e+00 1.06668667e-16 9.15422817e+00)	(6.72853927e-01 1.02186211e-16 8.86014522e+00)	(3.26569313e+00 4.48245516e-18 2.94082949e-01)
0.00955194      	(3.93655719e+00 -3.40539581e-16 9.17337865e+00)	(6.77807023e-01 -3.54267851e-16 8.88022010e+00)	(3.25875016e+00 1.37282694e-17 2.93158557e-01)
0.00962931      	(3.93489646e+00 -1.16745722e-17 9.19244598e+00)	(6.82723335e-01 -9.38484322e-19 8.90032635e+00)	(3.25217313e+00 -1.07360879e-17 2.92119637e-01)
0.00970668      	(3.93274298e+00 -1.93973285e-16 9.21305783e+00)	(6.87684412e-01 -1.91298240e-16 8.92187693e+00)	(3.24505857e+00 -2.67504474e-18 2.91180899e-01)
0.00978405      	(3.93093490e+00 5.91022346e-17 9.23275025e+00)	(6.92600824e-01 5.78405352e-17 8.94262504e+00)	(3.23833407e+00 1.26169945e-18 2.90125213e-01)
0.00986141      	(3.92855532e+00 9.87391228e-18 9.25303071e+00)	(6.97503062e-01 1.20271132e-17 8.96385790e+00)	(3.23105226e+00 -2.15320092e-18 2.89172813e-01)
0.00993878      	(3.92642714e+00 -3.51892478e-16 9.27245540e+00)	(7.02244985e-01 -3.63114210e-16 8.98435409e+00)	(3.22418216e+00 1.12217317e-17 2.88101316e-01)
0.0100162       	(3.92363627e+00 -4.88485380e-18 9.29312673e+00)	(7.06903146e-01 -1.45166011e-18 9.00599201e+00)	(3.21673312e+00 -3.43319369e-18 2.87134712e-01)
0.0100935       	(3.92105055e+00 -1.10756722e-17 9.31258815e+00)	(7.11333114e-01 -8.62774263e-18 9.02654097e+00)	(3.20971744e+00 -2.44792955e-18 2.86047180e-01)
0.0101709       	(3.91768368e+00 -4.24848384e-17 9.33312137e+00)	(7.15590956e-01 -3.93188434e-17 9.04805516e+00)	(3.20209273e+00 -3.16599499e-18 2.85066211e-01)
0.0102483       	(3.91450273e+00 8.65681677e-17 9.35313978e+00)	(7.19607528e-01 8.46679864e-17 9.06918001e+00)	(3.19489521e+00 1.90018136e-18 2.83959773e-01)
0.0103256       	(3.91051231e+00 -2.14451004e-16 9.37321811e+00)	(7.23468469e-01 -2.20988926e-16 9.09025851e+00)	(3.18704384e+00 6.53792125e-18 2.82959602e-01)
0.010403        	(3.90664306e+00 -5.58887773e-17 9.39360786e+00)	(7.27034454e-01 -5.42938203e-17 9.11177832e+00)	(3.17960861e+00 -1.59495700e-18 2.81829538e-01)
0.0104784       	(3.90206200e+00 -7.95729004e-17 9.41268411e+00)	(7.30401134e-01 -8.53044578e-17 9.13185818e+00)	(3.17166087e+00 5.73155743e-18 2.80825923e-01)
0.0105538       	(3.89791515e+00 1.03019129e-17 9.43212900e+00)	(7.33778611e-01 1.46517815e-17 9.15243164e+00)	(3.16413654e+00 -4.34986859e-18 2.79697363e-01)
0.0106292       	(3.89308172e+00 1.16836596e-16 9.45083659e+00)	(7.37151724e-01 1.14216047e-16 9.17216760e+00)	(3.15593000e+00 2.62054874e-18 2.78668991e-01)
0.0107045       	(3.88868144e+00 4.68718402e-17 9.47087982e+00)	(7.40549542e-01 5.10617922e-17 9.19336446e+00)	(3.14813190e+00 -4.18995197e-18 2.77515361e-01)
0.0107799       	(3.88374283e+00 1.55415087e-16 9.48950573e+00)	(7.44076403e-01 1.63531067e-16 9.21304318e+00)	(3.13966643e+00 -8.11598015e-18 2.76462549e-01)
0.0108553       	(3.87926185e+00 -1.48028847e-16 9.50808619e+00)	(7.47625090e-01 -1.58410258e-16 9.23279750e+00)	(3.13163676e+00 1.03814111e-17 2.75288686e-01)
0.0109307       	(3.87423836e+00 -1.16584165e-16 9.52751926e+00)	(7.51263112e-01 -1.19543502e-16 9.25330252e+00)	(3.12297525e+00 2.95933766e-18 2.74216738e-01)
0.0110061       	(3.86972983e+00 -4.84635685e-17 9.54621137e+00)	(7.54947245e-01 -4.48456596e-17 9.27318551e+00)	(3.11478259e+00 -3.61790890e-18 2.73025863e-01)
0.0110818       	(3.86462408e+00 -8.85011308e-17 9.56428971e+00)	(7.58667235e-01 -9.32795184e-17 9.29235372e+00)	(3.10595684e+00 4.77838756e-18 2.71935992e-01)
0.0111574       	(3.85987801e+00 1.03709015e-16 9.58393662e+00)	(7.62241077e-01 1.10380095e-16 9.31320737e+00)	(3.09763693e+00 -6.67108063e-18 2.70729244e-01)
0.0112331       	(3.85450856e+00 1.47437193e-17 9.60197780e+00)	(7.65786145e-01 2.52771853e-17 9.33235085e+00)	(3.08872241e+00 -1.05334660e-17 2.69626948e-01)
0.0113088       	(3.84941248e+00 -7.55963355e-17 9.62046029e+00)	(7.69079500e-01 -7.77109099e-17 9.35205053e+00)	(3.08033298e+00 2.11457438e-18 2.68409763e-01)
0.0113845       	(3.84353765e+00 3.99777185e-17 9.63855996e+00)	(7.72184148e-01 3.87524817e-17 9.37126252e+00)	(3.07135350e+00 1.22523678e-18 2.67297439e-01)
0.0114602       	(3.83792132e+00 -9.22741294e-17 9.65668907e+00)	(7.75018188e-01 -9.12428036e-17 9.39061829e+00)	(3.06290313e+00 -1.03132571e-18 2.66070780e-01)
0.0115358       	(3.83157504e+00 -7.71251020e-17 9.67479699e+00)	(7.77712117e-01 -7.08200914e-17 9.40984867e+00)	(3.05386292e+00 -6.30501058e-18 2.64948325e-01)
0.0116115       	(3.82549903e+00 -2.01649467e-17 9.69271253e+00)	(7.80148696e-01 -1.56222350e-17 9.42899996e+00)	(3.04535034e+00 -4.54271169e-18 2.63712578e-01)
0.0116872       	(3.81876241e+00 -5.52813711e-17 9.71037639e+00)	(7.82515222e-01 -5.48904384e-17 9.44779661e+00)	(3.03624719e+00 -3.90932706e-19 2.62579779e-01)
0.0117629       	(3.81250987e+00 4.68097138e-17 9.72782443e+00)	(7.84834752e-01 4.73483211e-17 9.46648868e+00)	(3.02767512e+00 -5.38607211e-19 2.61335749e-01)
0.0118386       	(3.80569916e+00 2.39891607e-17 9.74507844e+00)	(7.87183203e-01 2.36653924e-17 9.48488540e+00)	(3.01851595e+00 3.23768323e-19 2.60193037e-01)
0.0119142       	(3.79953098e+00 -4.51035271e-17 9.76197752e+00)	(7.89648870e-01 -4.86868112e-17 9.50303695e+00)	(3.00988211e+00 3.58328407e-18 2.58940577e-01)
0.0119899       	(3.79298581e+00 -6.88887550e-17 9.77868691e+00)	(7.92315772e-01 -7.44915619e-17 9.52089883e+00)	(3.00067004e+00 5.60280689e-18 2.57788085e-01)
0.0120656       	(3.78714569e+00 -1.62570160e-16 9.79517103e+00)	(7.95160219e-01 -1.74996187e-16 9.53864257e+00)	(2.99198547e+00 1.24260277e-17 2.56528464e-01)
0.0121413       	(3.78098310e+00 6.89401492e-17 9.81130462e+00)	(7.98246742e-01 7.24740414e-17 9.55593713e+00)	(2.98273636e+00 -3.53389228e-18 2.55367494e-01)
0.012217        	(3.77550406e+00 -7.97457158e-17 9.82712620e+00)	(8.01496146e-01 -8.68962891e-17 9.57302475e+00)	(2.97400792e+00 7.15057334e-18 2.54101446e-01)
0.0122926       	(3.76962196e+00 -2.34378713e-17 9.84277217e+00)	(8.04894102e-01 -3.67115071e-17 9.58984027e+00)	(2.96472786e+00 1.32736358e-17 2.52931898e-01)
0.0123683       	(3.76429067e+00 1.48142668e-16 9.85811280e+00)	(8.08326599e-01 1.47842524e-16 9.60645300e+00)	(2.95596407e+00 3.00144311e-19 2.51659799e-01)
0.012444        	(3.75841533e+00 -2.10113776e-16 9.87318747e+00)	(8.11745322e-01 -2.20123341e-16 9.62270421e+00)	(2.94667001e+00 1.00095647e-17 2.50483259e-01)
0.0125197       	(3.75291862e+00 4.04295452e-17 9.88788330e+00)	(8.15025035e-01 3.74614288e-17 9.63867503e+00)	(2.93789358e+00 2.96811637e-18 2.49208266e-01)
0.0125954       	(3.74666470e+00 -5.45593886e-17 9.90254643e+00)	(8.18058918e-01 -5.94586285e-17 9.65451956e+00)	(2.92860578e+00 4.89923991e-18 2.48026870e-01)
0.012671        	(3.74058498e+00 2.35914510e-16 9.91717413e+00)	(8.20763157e-01 2.35172692e-16 9.67042482e+00)	(2.91982182e+00 7.41817769e-19 2.46749311e-01)
0.0127474       	(3.73377637e+00 6.86537278e-17 9.93104134e+00)	(8.23293407e-01 6.43932086e-17 9.68548472e+00)	(2.91048296e+00 4.26051918e-18 2.45556626e-01)
0.0128237       	(3.72705557e+00 1.50632619e-16 9.94474880e+00)	(8.25421566e-01 1.57609886e-16 9.70048027e+00)	(2.90163401e+00 -6.97726689e-18 2.44268536e-01)
0.0129          	(3.71953417e+00 2.97260637e-17 9.95767458e+00)	(8.27240574e-01 2.63400663e-17 9.71460339e+00)	(2.89229359e+00 3.38599747e-18 2.43071192e-01)
0.0129763       	(3.71229108e+00 -2.05628831e-17 9.97135532e+00)	(8.28834395e-01 -2.04370761e-17 9.72957247e+00)	(2.88345668e+00 -1.25806972e-19 2.41782847e-01)
0.0130527       	(3.70443390e+00 1.49919223e-16 9.98407100e+00)	(8.30285997e-01 1.59096019e-16 9.74348800e+00)	(2.87414791e+00 -9.17679578e-18 2.40582994e-01)
0.013129        	(3.69701622e+00 1.07356720e-16 9.99603987e+00)	(8.31683010e-01 1.11266080e-16 9.75674556e+00)	(2.86533321e+00 -3.90936043e-18 2.39294306e-01)
0.0132053       	(3.68924648e+00 -1.16950417e-16 1.00084695e+01)	(8.33186019e-01 -1.10548512e-16 9.77037778e+00)	(2.85606047e+00 -6.40190473e-18 2.38091747e-01)
0.0132817       	(3.68212674e+00 2.33924246e-16 1.00194171e+01)	(8.34858449e-01 2.47245019e-16 9.78261353e+00)	(2.84726829e+00 -1.33207729e-17 2.36803555e-01)
0.013358        	(3.67478789e+00 6.71380905e-17 1.00303419e+01)	(8.36747892e-01 6.82191459e-17 9.79474110e+00)	(2.83803999e+00 -1.08105547e-18 2.35600802e-01)