# Moment        
# CofR          : (2.50000000e-01 0.00000000e+00 0.00000000e+00)
#
# Time          	(total_x total_y total_z)	(pressure_x pressure_y pressure_z)	(viscous_x viscous_y viscous_z)
2.39808e-06     	(6.14257170e-03 3.15534751e-02 6.75432774e+00)	(6.20435204e-03 3.25154780e-02 6.58311428e+00)	(-6.17803356e-05 -9.62002824e-04 1.71213460e-01)
5.27302e-06     	(1.48233918e-02 1.04908703e-01 7.79305271e+00)	(1.50603495e-02 1.07783664e-01 7.62413007e+00)	(-2.36957706e-04 -2.87496112e-03 1.68922643e-01)
8.72693e-06     	(3.43075231e-03 4.66997806e-02 7.33911747e+00)	(3.90027635e-03 5.21806173e-02 7.17120569e+00)	(-4.69524043e-04 -5.48083667e-03 1.67911779e-01)
1.28745e-05     	(3.37366330e-03 3.56819044e-02 7.02250353e+00)	(4.11555471e-03 4.41051307e-02 6.85549023e+00)	(-7.41891405e-04 -8.42322625e-03 1.67013303e-01)
1.786e-05       	(7.21559132e-03 8.51105575e-02 6.91688404e+00)	(8.28458595e-03 9.70962863e-02 6.75090565e+00)	(-1.06899464e-03 -1.19857287e-02 1.65978397e-01)
2.38487e-05     	(4.94157963e-04 6.77724216e-02 6.76856586e+00)	(1.94261944e-03 8.38686401e-02 6.60373358e+00)	(-1.44846148e-03 -1.60962185e-02 1.64832275e-01)
3.10262e-05     	(-1.09529844e-02 -2.26874749e-02 6.57954947e+00)	(-9.06311918e-03 -1.85297275e-03 6.41598566e+00)	(-1.88986520e-03 -2.08345022e-02 1.63563805e-01)
3.96012e-05     	(-7.08888012e-03 -3.59633020e-02 6.37098803e+00)	(-4.68166996e-03 -9.65727689e-03 6.20882646e+00)	(-2.40721015e-03 -2.63060251e-02 1.62161573e-01)
4.99281e-05     	(-4.83762224e-03 -9.64898732e-02 6.14786061e+00)	(-1.82530143e-03 -6.38552193e-02 5.98725237e+00)	(-3.01232081e-03 -3.26346538e-02 1.60608238e-01)
6.22667e-05     	(-6.60570493e-03 -6.73563547e-02 5.90438268e+00)	(-2.90235594e-03 -2.75151565e-02 5.74546223e+00)	(-3.70334900e-03 -3.98411982e-02 1.58920447e-01)
7.71513e-05     	(-2.05372637e-02 -1.48359572e-01 5.64159302e+00)	(-1.60435572e-02 -1.00343559e-01 5.48448173e+00)	(-4.49370645e-03 -4.80160131e-02 1.57111285e-01)
9.48984e-05     	(-1.44801223e-02 -1.17569559e-01 5.37609175e+00)	(-9.09544036e-03 -6.03682734e-02 5.22085695e+00)	(-5.38468192e-03 -5.72012858e-02 1.55234803e-01)
0.000115947     	(-1.43020153e-02 -8.35098691e-02 5.11423843e+00)	(-7.93225791e-03 -1.61598133e-02 4.96082090e+00)	(-6.36975736e-03 -6.73500558e-02 1.53417524e-01)
0.000141206     	(-1.21476862e-02 -5.72786625e-02 4.84311171e+00)	(-4.69662475e-03 2.12212910e-02 4.69128414e+00)	(-7.45106150e-03 -7.84999536e-02 1.51827570e-01)
0.000171877     	(-2.02907918e-02 -1.81877354e-01 4.56406096e+00)	(-1.16663868e-02 -9.13193930e-02 4.41341062e+00)	(-8.62440494e-03 -9.05579614e-02 1.50650343e-01)
0.000207883     	(-2.24120813e-02 -2.07906833e-01 4.27998428e+00)	(-1.25860352e-02 -1.05036592e-01 4.12988180e+00)	(-9.82604606e-03 -1.02870241e-01 1.50102486e-01)
0.000251889     	(-3.26169832e-02 -2.48100328e-01 3.98772920e+00)	(-2.15497515e-02 -1.32434684e-01 3.83741046e+00)	(-1.10672317e-02 -1.15665644e-01 1.50318736e-01)
0.000305326     	(-3.96181715e-02 -2.69932140e-01 3.69121595e+00)	(-2.73208487e-02 -1.41075230e-01 3.53969923e+00)	(-1.22973227e-02 -1.28856909e-01 1.51516715e-01)
0.000368478     	(-5.24788549e-02 -3.51009200e-01 3.39987217e+00)	(-3.90516295e-02 -2.09053992e-01 3.24611276e+00)	(-1.34272255e-02 -1.41955208e-01 1.53759415e-01)
0.000438647     	(-6.53402499e-02 -4.15950356e-01 3.12223130e+00)	(-5.09685542e-02 -2.61820895e-01 2.96532969e+00)	(-1.43716956e-02 -1.54129461e-01 1.56901605e-01)
0.00051884      	(-7.62213302e-02 -5.03315610e-01 2.84821140e+00)	(-6.10567528e-02 -3.37735979e-01 2.68731843e+00)	(-1.51645774e-02 -1.65579630e-01 1.60892967e-01)
0.000599034     	(-9.07462714e-02 -5.90196070e-01 2.60563874e+00)	(-7.50075189e-02 -4.15470637e-01 2.44069720e+00)	(-1.57387525e-02 -1.74725432e-01 1.64941540e-01)
0.000679227     	(-1.05216080e-01 -6.84999671e-01 2.38869226e+00)	(-8.90408195e-02 -5.02937294e-01 2.21993560e+00)	(-1.61752601e-02 -1.82062376e-01 1.68756654e-01)
0.00075942      	(-1.20794140e-01 -7.76873654e-01 2.19158352e+00)	(-1.04278323e-01 -5.88941766e-01 2.01947927e+00)	(-1.65158176e-02 -1.87931888e-01 1.72104257e-01)
0.000839613     	(-1.35915962e-01 -8.71976282e-01 2.01047946e+00)	(-1.19131362e-01 -6.79343122e-01 1.83554503e+00)	(-1.67846006e-02 -1.92633159e-01 1.74934433e-01)
0.000919807     	(-1.51581045e-01 -9.69268434e-01 1.84215378e+00)	(-1.34582300e-01 -7.72873777e-01 1.66486402e+00)	(-1.69987448e-02 -1.96394657e-01 1.77289762e-01)
0.001           	(-1.66771764e-01 -1.06377543e+00 1.68589416e+00)	(-1.49599299e-01 -8.64326996e-01 1.50666627e+00)	(-1.71724650e-02 -1.99448431e-01 1.79227885e-01)
0.00108333      	(-1.82733669e-01 -1.16200799e+00 1.53553510e+00)	(-1.65413042e-01 -9.59981122e-01 1.35466508e+00)	(-1.73206264e-02 -2.02026867e-01 1.80870023e-01)
0.00116667      	(-1.98086983e-01 -1.25713928e+00 1.39655278e+00)	(-1.80643723e-01 -1.05298326e+00 1.21434342e+00)	(-1.74432607e-02 -2.04156017e-01 1.82209358e-01)
0.00125         	(-2.13005080e-01 -1.34921184e+00 1.26789545e+00)	(-1.95458691e-01 -1.14326696e+00 1.08458762e+00)	(-1.75463894e-02 -2.05944873e-01 1.83307837e-01)
0.00133333      	(-2.27590087e-01 -1.43842511e+00 1.14822485e+00)	(-2.09955399e-01 -1.23094989e+00 9.64011989e-01)	(-1.76346879e-02 -2.07475228e-01 1.84212856e-01)
0.00141667      	(-2.41756274e-01 -1.52407662e+00 1.03657720e+00)	(-2.24044708e-01 -1.31527040e+00 8.51614795e-01)	(-1.77115663e-02 -2.08806216e-01 1.84962404e-01)
0.0015          	(-2.55522032e-01 -1.60572036e+00 9.32360442e-01)	(-2.37742414e-01 -1.39574003e+00 7.46775734e-01)	(-1.77796183e-02 -2.09980329e-01 1.85584708e-01)
0.00158333      	(-2.68805049e-01 -1.68316624e+00 8.34860491e-01)	(-2.50964775e-01 -1.47214091e+00 6.48760568e-01)	(-1.78402746e-02 -2.11025336e-01 1.86099923e-01)
0.00166667      	(-2.81582749e-01 -1.75419080e+00 7.43734915e-01)	(-2.63688111e-01 -1.54222984e+00 5.57211756e-01)	(-1.78946371e-02 -2.11960957e-01 1.86523159e-01)
0.00175         	(-2.93773870e-01 -1.82134242e+00 6.58685143e-01)	(-2.75830864e-01 -1.60854645e+00 4.71820614e-01)	(-1.79430064e-02 -2.12795977e-01 1.86864528e-01)
0.00183333      	(-3.05382449e-01 -1.88178719e+00 5.79534221e-01)	(-2.87396803e-01 -1.66825152e+00 3.92403341e-01)	(-1.79856453e-02 -2.13535667e-01 1.87130880e-01)
0.00191667      	(-3.16379002e-01 -1.93615118e+00 5.06255827e-01)	(-2.98356783e-01 -1.72197067e+00 3.18929238e-01)	(-1.80222188e-02 -2.14180507e-01 1.87326588e-01)
0.002           	(-3.26721364e-01 -1.98332934e+00 4.38833430e-01)	(-3.08668898e-01 -1.76860266e+00 2.51380212e-01)	(-1.80524660e-02 -2.14726676e-01 1.87453218e-01)
0.00207877      	(-3.35849366e-01 -2.02164801e+00 3.80480586e-01)	(-3.17775055e-01 -1.80648611e+00 1.92966284e-01)	(-1.80743108e-02 -2.15161904e-01 1.87514302e-01)
0.00215754      	(-3.44544131e-01 -2.05501740e+00 3.27426370e-01)	(-3.26454254e-01 -1.83952156e+00 1.39910196e-01)	(-1.80898773e-02 -2.15495844e-01 1.87516174e-01)
0.00223631      	(-3.52508234e-01 -2.08046468e+00 2.79795126e-01)	(-3.34408674e-01 -1.86472412e+00 9.23316072e-02)	(-1.80995598e-02 -2.15740555e-01 1.87463519e-01)
0.00231508      	(-3.59848448e-01 -2.09842333e+00 2.37417016e-01)	(-3.41745618e-01 -1.88253560e+00 5.00612883e-02)	(-1.81028300e-02 -2.15887731e-01 1.87355727e-01)
0.00239385      	(-3.66708276e-01 -2.11017106e+00 2.00191644e-01)	(-3.48608600e-01 -1.89422669e+00 1.29942086e-02)	(-1.80996755e-02 -2.15944368e-01 1.87197435e-01)
0.00247262      	(-3.72863957e-01 -2.11809642e+00 1.67865604e-01)	(-3.54773405e-01 -1.90218153e+00 -1.91283536e-02)	(-1.80905520e-02 -2.15914892e-01 1.86993957e-01)
0.00255139      	(-3.78759699e-01 -2.12165325e+00 1.40095156e-01)	(-3.60683836e-01 -1.90584067e+00 -4.66573550e-02)	(-1.80758626e-02 -2.15812579e-01 1.86752511e-01)
0.00263016      	(-3.84198064e-01 -2.12332483e+00 1.16537533e-01)	(-3.66141205e-01 -1.90767267e+00 -6.99444599e-02)	(-1.80568588e-02 -2.15652163e-01 1.86481993e-01)
0.00270894      	(-3.89307255e-01 -2.12264142e+00 9.67750159e-02)	(-3.71273834e-01 -1.90719856e+00 -8.94116599e-02)	(-1.80334213e-02 -2.15442860e-01 1.86186676e-01)
0.00278771      	(-3.93999305e-01 -2.11991821e+00 8.04399688e-02)	(-3.75992074e-01 -1.90472018e+00 -1.05433816e-01)	(-1.80072308e-02 -2.15198028e-01 1.85873785e-01)
0.00286648      	(-3.98596109e-01 -2.11706417e+00 6.71470391e-02)	(-3.80618296e-01 -1.90213185e+00 -1.18404439e-01)	(-1.79778129e-02 -2.14932313e-01 1.85551478e-01)
0.00294525      	(-4.02895118e-01 -2.11308759e+00 5.65925378e-02)	(-3.84947878e-01 -1.89843697e+00 -1.28628327e-01)	(-1.79472406e-02 -2.14650622e-01 1.85220865e-01)
0.00302402      	(-4.06987797e-01 -2.10916521e+00 4.85141998e-02)	(-3.89073437e-01 -1.89479114e+00 -1.36380543e-01)	(-1.79143598e-02 -2.14374071e-01 1.84894742e-01)
0.00310279      	(-4.10755321e-01 -2.10296331e+00 4.27061015e-02)	(-3.92873573e-01 -1.88887246e+00 -1.41857794e-01)	(-1.78817475e-02 -2.14090845e-01 1.84563896e-01)
0.00318156      	(-4.14264073e-01 -2.09598995e+00 3.89963521e-02)	(-3.96417140e-01 -1.88216215e+00 -1.45249941e-01)	(-1.78469326e-02 -2.13827801e-01 1.84246293e-01)
0.00326033      	(-4.17580438e-01 -2.08738852e+00 3.71777126e-02)	(-3.99766716e-01 -1.87383143e+00 -1.46745458e-01)	(-1.78137229e-02 -2.13557092e-01 1.83923171e-01)
0.0033391       	(-4.20613941e-01 -2.07701644e+00 3.72096179e-02)	(-4.02836113e-01 -1.86369999e+00 -1.46410562e-01)	(-1.77778274e-02 -2.13316444e-01 1.83620179e-01)
0.00341787      	(-4.23424327e-01 -2.06520174e+00 3.88528951e-02)	(-4.05679658e-01 -1.85214135e+00 -1.44454439e-01)	(-1.77446694e-02 -2.13060395e-01 1.83307334e-01)
0.00349664      	(-4.25942648e-01 -2.05103816e+00 4.19738835e-02)	(-4.08234209e-01 -1.83820021e+00 -1.41045442e-01)	(-1.77084395e-02 -2.12837956e-01 1.83019326e-01)
0.00357541      	(-4.28308864e-01 -2.03654923e+00 4.63513560e-02)	(-4.10633188e-01 -1.82395549e+00 -1.36367078e-01)	(-1.76756755e-02 -2.12593743e-01 1.82718434e-01)
0.00365418      	(-4.30443618e-01 -2.02059610e+00 5.17966426e-02)	(-4.12803855e-01 -1.80821429e+00 -1.30647395e-01)	(-1.76397632e-02 -2.12381815e-01 1.82444037e-01)
0.00373295      	(-4.33230946e-01 -2.01176983e+00 5.81393035e-02)	(-4.15623628e-01 -1.79962450e+00 -1.24018071e-01)	(-1.76073174e-02 -2.12145339e-01 1.82157375e-01)
0.00381172      	(-4.35182038e-01 -1.99540171e+00 6.49755826e-02)	(-4.17610058e-01 -1.78346558e+00 -1.16921142e-01)	(-1.75719803e-02 -2.11936129e-01 1.81896724e-01)
0.00389049      	(-4.36919185e-01 -1.97647885e+00 7.21795428e-02)	(-4.19379244e-01 -1.76477600e+00 -1.09444406e-01)	(-1.75399412e-02 -2.11702858e-01 1.81623949e-01)
0.00396926      	(-4.38398717e-01 -1.95709675e+00 7.95319521e-02)	(-4.20893194e-01 -1.74560605e+00 -1.01842301e-01)	(-1.75055228e-02 -2.11490708e-01 1.81374253e-01)
0.00404803      	(-4.39776278e-01 -1.93718144e+00 8.68320218e-02)	(-4.22302589e-01 -1.72592894e+00 -9.42800908e-02)	(-1.74736883e-02 -2.11252503e-01 1.81112113e-01)
0.00412681      	(-4.40982974e-01 -1.91628463e+00 9.39456310e-02)	(-4.23542900e-01 -1.70525157e+00 -8.69255627e-02)	(-1.74400735e-02 -2.11033068e-01 1.80871194e-01)
0.00420558      	(-4.42026908e-01 -1.89496974e+00 1.00748084e-01)	(-4.24618429e-01 -1.68417870e+00 -7.98710267e-02)	(-1.74084783e-02 -2.10791040e-01 1.80619111e-01)
0.00428435      	(-4.42953064e-01 -1.87324602e+00 1.07199376e-01)	(-4.25577659e-01 -1.66268298e+00 -7.31853634e-02)	(-1.73754045e-02 -2.10563037e-01 1.80384740e-01)
0.00436312      	(-4.43711609e-01 -1.85155984e+00 1.13215785e-01)	(-4.26368056e-01 -1.64124735e+00 -6.69228684e-02)	(-1.73435531e-02 -2.10312493e-01 1.80138654e-01)
0.00444189      	(-4.44373677e-01 -1.82770036e+00 1.18842590e-01)	(-4.27063646e-01 -1.61763559e+00 -6.10615145e-02)	(-1.73100310e-02 -2.10064771e-01 1.79904104e-01)
0.00452066      	(-4.44859178e-01 -1.80480359e+00 1.24005488e-01)	(-4.27581980e-01 -1.59500481e+00 -5.56551474e-02)	(-1.72771984e-02 -2.09798783e-01 1.79660635e-01)
0.00459943      	(-4.45231549e-01 -1.78225542e+00 1.28803659e-01)	(-4.27988056e-01 -1.57271507e+00 -5.06262808e-02)	(-1.72434929e-02 -2.09540352e-01 1.79429940e-01)
0.0046782       	(-4.45475666e-01 -1.75912393e+00 1.33233346e-01)	(-4.28265684e-01 -1.54985651e+00 -4.59580366e-02)	(-1.72099826e-02 -2.09267424e-01 1.79191382e-01)
0.00475697      	(-4.45588142e-01 -1.73597742e+00 1.37306955e-01)	(-4.28412296e-01 -1.52697924e+00 -4.16552221e-02)	(-1.71758466e-02 -2.08998183e-01 1.78962177e-01)
0.0048337       	(-4.45366620e-01 -1.71070347e+00 1.40969462e-01)	(-4.28224290e-01 -1.50197080e+00 -3.77641593e-02)	(-1.71423301e-02 -2.08732670e-01 1.78733622e-01)
0.00491042      	(-4.45308857e-01 -1.68808608e+00 1.44413013e-01)	(-4.28200282e-01 -1.47961916e+00 -3.40988540e-02)	(-1.71085744e-02 -2.08466922e-01 1.78511867e-01)
0.00498715      	(-4.45218692e-01 -1.66596390e+00 1.47655013e-01)	(-4.28144404e-01 -1.45777036e+00 -3.06302308e-02)	(-1.70742880e-02 -2.08193543e-01 1.78285244e-01)
0.00506452      	(-4.45083255e-01 -1.64402829e+00 1.50723573e-01)	(-4.28043311e-01 -1.43611234e+00 -2.73377058e-02)	(-1.70399440e-02 -2.07915947e-01 1.78061278e-01)
0.00514188      	(-4.44882317e-01 -1.62199198e+00 1.53604879e-01)	(-4.27877044e-01 -1.41435111e+00 -2.42288025e-02)	(-1.70052724e-02 -2.07640872e-01 1.77833682e-01)
0.00521925      	(-4.44646505e-01 -1.60000403e+00 1.56357694e-01)	(-4.27675270e-01 -1.39263542e+00 -2.12522164e-02)	(-1.69712346e-02 -2.07368610e-01 1.77609910e-01)
0.00529662      	(-4.44334585e-01 -1.57775796e+00 1.58953868e-01)	(-4.27398232e-01 -1.37066188e+00 -1.84294334e-02)	(-1.69363534e-02 -2.07096076e-01 1.77383301e-01)
0.00537399      	(-4.44013783e-01 -1.55573448e+00 1.61442996e-01)	(-4.27111739e-01 -1.34891313e+00 -1.57164022e-02)	(-1.69020441e-02 -2.06821355e-01 1.77159398e-01)
0.00545136      	(-4.43657579e-01 -1.53374894e+00 1.63800665e-01)	(-4.26790993e-01 -1.32720326e+00 -1.31323461e-02)	(-1.68665866e-02 -2.06545681e-01 1.76933011e-01)
0.00552873      	(-4.43312707e-01 -1.51204876e+00 1.66059986e-01)	(-4.26480853e-01 -1.30578310e+00 -1.06483213e-02)	(-1.68318542e-02 -2.06265663e-01 1.76708307e-01)
0.0056061       	(-4.42954165e-01 -1.49067405e+00 1.68217726e-01)	(-4.26158427e-01 -1.28468903e+00 -8.26375819e-03)	(-1.67957378e-02 -2.05985020e-01 1.76481484e-01)
0.00568347      	(-4.42563325e-01 -1.46866836e+00 1.70265724e-01)	(-4.25802781e-01 -1.26296929e+00 -5.98996293e-03)	(-1.67605437e-02 -2.05699071e-01 1.76255687e-01)
0.00576084      	(-4.42201551e-01 -1.44720147e+00 1.72212169e-01)	(-4.25477765e-01 -1.24178833e+00 -3.81586762e-03)	(-1.67237861e-02 -2.05413141e-01 1.76028036e-01)
0.00583821      	(-4.41832168e-01 -1.42563798e+00 1.74073285e-01)	(-4.25144101e-01 -1.22051809e+00 -1.72712741e-03)	(-1.66880664e-02 -2.05119894e-01 1.75800412e-01)
0.00591558      	(-4.41477954e-01 -1.40413357e+00 1.75825223e-01)	(-4.24827302e-01 -1.19930581e+00 2.53772992e-04)	(-1.66506523e-02 -2.04827759e-01 1.75571450e-01)
0.00599295      	(-4.41135916e-01 -1.38261919e+00 1.77494828e-01)	(-4.24521486e-01 -1.17809200e+00 2.15297199e-03)	(-1.66144298e-02 -2.04527197e-01 1.75341856e-01)
0.00607032      	(-4.40823462e-01 -1.36134829e+00 1.79069356e-01)	(-4.24247131e-01 -1.15712046e+00 3.95832230e-03)	(-1.65763310e-02 -2.04227833e-01 1.75111034e-01)
0.00614769      	(-4.40511958e-01 -1.34019876e+00 1.80559042e-01)	(-4.23972368e-01 -1.13627958e+00 5.67994570e-03)	(-1.65395899e-02 -2.03919183e-01 1.74879096e-01)
0.00622506      	(-4.40246770e-01 -1.31909556e+00 1.81948479e-01)	(-4.23745958e-01 -1.11548332e+00 7.30229372e-03)	(-1.65008123e-02 -2.03612239e-01 1.74646185e-01)
0.00630242      	(-4.39999874e-01 -1.29822855e+00 1.83259587e-01)	(-4.23536385e-01 -1.09493410e+00 8.84815161e-03)	(-1.64634891e-02 -2.03294441e-01 1.74411436e-01)
0.00637979      	(-4.39775442e-01 -1.27732845e+00 1.84476317e-01)	(-4.23351460e-01 -1.07434980e+00 1.03003657e-02)	(-1.64239822e-02 -2.02978652e-01 1.74175952e-01)
0.00645716      	(-4.39655212e-01 -1.25711804e+00 1.85608129e-01)	(-4.23269075e-01 -1.05446552e+00 1.16695716e-02)	(-1.63861376e-02 -2.02652527e-01 1.73938557e-01)
0.00653453      	(-4.39477270e-01 -1.23648590e+00 1.86655488e-01)	(-4.23131150e-01 -1.03415422e+00 1.29539988e-02)	(-1.63461201e-02 -2.02331685e-01 1.73701489e-01)
0.0066119       	(-4.39275275e-01 -1.21541345e+00 1.87617120e-01)	(-4.22967275e-01 -1.01341293e+00 1.41549664e-02)	(-1.63080004e-02 -2.02000521e-01 1.73462154e-01)
0.00668927      	(-4.39256620e-01 -1.19573129e+00 1.88510926e-01)	(-4.22989066e-01 -9.94056090e-01 1.52876637e-02)	(-1.62675536e-02 -2.01675201e-01 1.73223262e-01)
0.00676664      	(-4.39115581e-01 -1.17500456e+00 1.89332615e-01)	(-4.22886409e-01 -9.73665449e-01 1.63509396e-02)	(-1.62291723e-02 -2.01339109e-01 1.72981675e-01)
0.00684401      	(-4.39102012e-01 -1.15512444e+00 1.90090172e-01)	(-4.22913763e-01 -9.54115883e-01 1.73496042e-02)	(-1.61882492e-02 -2.01008558e-01 1.72740568e-01)
0.00692138      	(-4.39104281e-01 -1.13555096e+00 1.90788182e-01)	(-4.22954842e-01 -9.34886741e-01 1.82932222e-02)	(-1.61494390e-02 -2.00664218e-01 1.72494960e-01)
0.00699875      	(-4.39154510e-01 -1.11614925e+00 1.91427480e-01)	(-4.23046677e-01 -9.15824627e-01 1.91779601e-02)	(-1.61078322e-02 -2.00324627e-01 1.72249520e-01)
0.00707612      	(-4.39241774e-01 -1.09698918e+00 1.92014115e-01)	(-4.23173362e-01 -8.97020731e-01 2.00162762e-02)	(-1.60684125e-02 -1.99968451e-01 1.71997839e-01)
0.00715349      	(-4.39358830e-01 -1.07808316e+00 1.92556994e-01)	(-4.23332816e-01 -8.78465856e-01 2.08105677e-02)	(-1.60260147e-02 -1.99617309e-01 1.71746426e-01)
0.00723086      	(-4.39500902e-01 -1.05942683e+00 1.93053462e-01)	(-4.23514954e-01 -8.60178776e-01 2.15658100e-02)	(-1.59859482e-02 -1.99248058e-01 1.71487652e-01)
0.00730823      	(-4.39694465e-01 -1.04084798e+00 1.93507971e-01)	(-4.23751696e-01 -8.41962460e-01 2.22778128e-02)	(-1.59427690e-02 -1.98885516e-01 1.71230158e-01)
0.0073856       	(-4.39911380e-01 -1.02264373e+00 1.93922231e-01)	(-4.24009241e-01 -8.24139329e-01 2.29573329e-02)	(-1.59021385e-02 -1.98504399e-01 1.70964898e-01)
0.00746297      	(-4.40157367e-01 -1.00438735e+00 1.94304371e-01)	(-4.24299079e-01 -8.06254581e-01 2.36016616e-02)	(-1.58582877e-02 -1.98132768e-01 1.70702710e-01)
0.00754033      	(-4.40426203e-01 -9.86535381e-01 1.94651195e-01)	(-4.24608956e-01 -7.88792533e-01 2.42184061e-02)	(-1.58172470e-02 -1.97742848e-01 1.70432789e-01)
0.0076177       	(-4.40760864e-01 -9.68850760e-01 1.94971331e-01)	(-4.24988011e-01 -7.71485803e-01 2.48035280e-02)	(-1.57728527e-02 -1.97364957e-01 1.70167803e-01)
0.00769507      	(-4.41104937e-01 -9.51594043e-01 1.95260912e-01)	(-4.25373422e-01 -7.54625496e-01 2.53662066e-02)	(-1.57315149e-02 -1.96968547e-01 1.69894705e-01)
0.00777244      	(-4.41495560e-01 -9.34497901e-01 1.95530693e-01)	(-4.25808844e-01 -7.37910854e-01 2.59024438e-02)	(-1.56867154e-02 -1.96587047e-01 1.69628249e-01)
0.00784981      	(-4.41964451e-01 -9.17969411e-01 1.95772800e-01)	(-4.26319028e-01 -7.21779461e-01 2.64183008e-02)	(-1.56454227e-02 -1.96189950e-01 1.69354499e-01)
0.00792718      	(-4.42385207e-01 -9.01322272e-01 1.96002001e-01)	(-4.26784445e-01 -7.05508732e-01 2.69118963e-02)	(-1.56007622e-02 -1.95813540e-01 1.69090105e-01)
0.00800455      	(-4.42917579e-01 -8.85373781e-01 1.96197946e-01)	(-4.27357865e-01 -6.89955309e-01 2.73816655e-02)	(-1.55597138e-02 -1.95418472e-01 1.68816281e-01)
0.00808192      	(-4.43443399e-01 -8.69534364e-01 1.96382773e-01)	(-4.27928439e-01 -6.74491106e-01 2.78309438e-02)	(-1.55149596e-02 -1.95043258e-01 1.68551829e-01)
0.00815929      	(-4.44027304e-01 -8.54099573e-01 1.96534321e-01)	(-4.28553407e-01 -6.59454027e-01 2.82585448e-02)	(-1.54738975e-02 -1.94645545e-01 1.68275776e-01)
0.00823666      	(-4.44696782e-01 -8.39285872e-01 1.96679222e-01)	(-4.29267934e-01 -6.45017652e-01 2.86693606e-02)	(-1.54288482e-02 -1.94268220e-01 1.68009862e-01)
0.00831403      	(-4.45327781e-01 -8.24432703e-01 1.96794088e-01)	(-4.29940135e-01 -6.30566779e-01 2.90633850e-02)	(-1.53876465e-02 -1.93865924e-01 1.67730703e-01)
0.0083914       	(-4.45984620e-01 -8.09762414e-01 1.96898435e-01)	(-4.30642380e-01 -6.16277728e-01 2.94357189e-02)	(-1.53422394e-02 -1.93484685e-01 1.67462716e-01)
0.00846877      	(-4.46683963e-01 -7.95213356e-01 1.96976677e-01)	(-4.31383123e-01 -6.02136589e-01 2.97964186e-02)	(-1.53008401e-02 -1.93076767e-01 1.67180258e-01)
0.00854614      	(-4.47380684e-01 -7.80713446e-01 1.97057563e-01)	(-4.32125621e-01 -5.88021878e-01 3.01472620e-02)	(-1.52550631e-02 -1.92691568e-01 1.66910301e-01)
0.00862351      	(-4.48156406e-01 -7.66833217e-01 1.97111135e-01)	(-4.32942972e-01 -5.74555650e-01 3.04866463e-02)	(-1.52134340e-02 -1.92277567e-01 1.66624489e-01)
0.00870087      	(-4.48921719e-01 -7.53033537e-01 1.97170289e-01)	(-4.33754489e-01 -5.61145845e-01 3.08180774e-02)	(-1.51672300e-02 -1.91887692e-01 1.66352212e-01)
0.00877824      	(-4.49709340e-01 -7.39497222e-01 1.97204691e-01)	(-4.34584066e-01 -5.48031885e-01 3.11432048e-02)	(-1.51252742e-02 -1.91465337e-01 1.66061486e-01)
0.00885561      	(-4.50522013e-01 -7.25914322e-01 1.97239382e-01)	(-4.35443628e-01 -5.34849437e-01 3.14562288e-02)	(-1.50783845e-02 -1.91064885e-01 1.65783153e-01)
0.00893298      	(-4.51368205e-01 -7.12599228e-01 1.97245988e-01)	(-4.36332472e-01 -5.21972705e-01 3.17633743e-02)	(-1.50357333e-02 -1.90626523e-01 1.65482614e-01)
0.00901035      	(-4.52213371e-01 -6.99094457e-01 1.97250892e-01)	(-4.37225523e-01 -5.08885765e-01 3.20569978e-02)	(-1.49878475e-02 -1.90208691e-01 1.65193894e-01)
0.00908772      	(-4.53097428e-01 -6.86107758e-01 1.97226995e-01)	(-4.38153150e-01 -4.96358088e-01 3.23463257e-02)	(-1.49442783e-02 -1.89749670e-01 1.64880669e-01)
0.00916509      	(-4.53976639e-01 -6.73183580e-01 1.97200574e-01)	(-4.39081362e-01 -4.83871296e-01 3.26203965e-02)	(-1.48952762e-02 -1.89312284e-01 1.64580177e-01)
0.00924246      	(-4.54914025e-01 -6.60805398e-01 1.97140296e-01)	(-4.40063284e-01 -4.71972943e-01 3.28860769e-02)	(-1.48507406e-02 -1.88832454e-01 1.64254219e-01)
0.00931983      	(-4.55813771e-01 -6.48279537e-01 1.97084529e-01)	(-4.41013123e-01 -4.59902802e-01 3.31417022e-02)	(-1.48006479e-02 -1.88376735e-01 1.63942827e-01)
0.0093972       	(-4.56742783e-01 -6.35708014e-01 1.96999883e-01)	(-4.41987559e-01 -4.47830042e-01 3.33943573e-02)	(-1.47552238e-02 -1.87877972e-01 1.63605526e-01)
0.00947457      	(-4.57711408e-01 -6.23378235e-01 1.96927353e-01)	(-4.43007261e-01 -4.35972721e-01 3.36426964e-02)	(-1.47041474e-02 -1.87405514e-01 1.63284657e-01)
0.00955194      	(-4.58668933e-01 -6.11036890e-01 1.96827859e-01)	(-4.44011005e-01 -4.24147207e-01 3.38903512e-02)	(-1.46579278e-02 -1.86889683e-01 1.62937508e-01)
0.00962931      	(-4.59622299e-01 -5.98580177e-01 1.96744823e-01)	(-4.45016317e-01 -4.12177707e-01 3.41361667e-02)	(-1.46059819e-02 -1.86402470e-01 1.62608656e-01)
0.00970668      	(-4.60652892e-01 -5.86572675e-01 1.96637149e-01)	(-4.46093847e-01 -4.00701431e-01 3.43842206e-02)	(-1.45590449e-02 -1.85871244e-01 1.62252928e-01)
0.00978405      	(-4.61637513e-01 -5.74543907e-01 1.96546745e-01)	(-4.47131252e-01 -3.89173499e-01 3.46300412e-02)	(-1.45062607e-02 -1.85370408e-01 1.61916704e-01)
0.00986141      	(-4.62651536e-01 -5.62438790e-01 1.96427766e-01)	(-4.48192895e-01 -3.77614485e-01 3.48751531e-02)	(-1.44586407e-02 -1.84824305e-01 1.61552613e-01)
0.00993878      	(-4.63622770e-01 -5.50130820e-01 1.96321357e-01)	(-4.49217704e-01 -3.65821204e-01 3.51122492e-02)	(-1.44050658e-02 -1.84309615e-01 1.61209108e-01)
0.0100162       	(-4.64656336e-01 -5.38475010e-01 1.96181813e-01)	(-4.50299601e-01 -3.54726582e-01 3.53451573e-02)	(-1.43567356e-02 -1.83748428e-01 1.60836656e-01)
0.0100935       	(-4.65629408e-01 -5.26107430e-01 1.96052528e-01)	(-4.51327049e-01 -3.42887245e-01 3.55666557e-02)	(-1.43023590e-02 -1.83220185e-01 1.60485872e-01)
0.0101709       	(-4.66656069e-01 -5.14073569e-01 1.95884184e-01)	(-4.52402758e-01 -3.31430344e-01 3.57795478e-02)	(-1.42533106e-02 -1.82643225e-01 1.60104636e-01)
0.0102483       	(-4.67656989e-01 -5.02068214e-01 1.95725137e-01)	(-4.53459000e-01 -3.19969874e-01 3.59803764e-02)	(-1.41979886e-02 -1.82098341e-01 1.59744760e-01)
0.0103256       	(-4.68660906e-01 -4.90060583e-01 1.95525615e-01)	(-4.54512926e-01 -3.08558921e-01 3.61734234e-02)	(-1.41479801e-02 -1.81501662e-01 1.59352192e-01)
0.010403        	(-4.69680393e-01 -4.78188078e-01 1.95332153e-01)	(-4.55588916e-01 -2.97252402e-01 3.63517227e-02)	(-1.40914769e-02 -1.80935676e-01 1.58980430e-01)
0.0104784       	(-4.70634205e-01 -4.66358770e-01 1.95103100e-01)	(-4.56592909e-01 -2.86026481e-01 3.65200567e-02)	(-1.40412962e-02 -1.80332289e-01 1.58583043e-01)
0.0105538       	(-4.71606450e-01 -4.54668497e-01 1.94895758e-01)	(-4.57621582e-01 -2.74910674e-01 3.66889305e-02)	(-1.39848681e-02 -1.79757823e-01 1.58206827e-01)
0.0106292       	(-4.72541830e-01 -4.42510417e-01 1.94654086e-01)	(-4.58608380e-01 -2.63381673e-01 3.68575862e-02)	(-1.39334495e-02 -1.79128745e-01 1.57796500e-01)
0.0107045       	(-4.73543991e-01 -4.30587760e-01 1.94434072e-01)	(-4.59668223e-01 -2.52059549e-01 3.70274771e-02)	(-1.38757681e-02 -1.78528211e-01 1.57406595e-01)
0.0107799       	(-4.74475286e-01 -4.18617539e-01 1.94187142e-01)	(-4.60652159e-01 -2.40742679e-01 3.72038202e-02)	(-1.38231275e-02 -1.77874860e-01 1.56983321e-01)
0.0108553       	(-4.75404309e-01 -4.06426132e-01 1.93963092e-01)	(-4.61639875e-01 -2.29174159e-01 3.73812545e-02)	(-1.37644343e-02 -1.77251973e-01 1.56581838e-01)
0.0109307       	(-4.76375963e-01 -3.94443162e-01 1.93711918e-01)	(-4.62665126e-01 -2.17863769e-01 3.75631556e-02)	(-1.37108369e-02 -1.76579394e-01 1.56148763e-01)
0.0110061       	(-4.77310568e-01 -3.82391334e-01 1.93486492e-01)	(-4.63659275e-01 -2.06451461e-01 3.77473623e-02)	(-1.36512932e-02 -1.75939873e-01 1.55739129e-01)
0.0110818       	(-4.78214486e-01 -3.70052357e-01 1.93231204e-01)	(-4.64617686e-01 -1.94802139e-01 3.79333617e-02)	(-1.35967996e-02 -1.75250218e-01 1.55297842e-01)
0.0111574       	(-4.79196831e-01 -3.57901107e-01 1.92993900e-01)	(-4.65660369e-01 -1.83304690e-01 3.81120538e-02)	(-1.35364622e-02 -1.74596417e-01 1.54881847e-01)
0.0112331       	(-4.80098890e-01 -3.45706013e-01 1.92725428e-01)	(-4.66617543e-01 -1.71809438e-01 3.82893072e-02)	(-1.34813474e-02 -1.73896575e-01 1.54436121e-01)
0.0113088       	(-4.81023015e-01 -3.33451895e-01 1.92470624e-01)	(-4.67602526e-01 -1.60218239e-01 3.84539750e-02)	(-1.34204881e-02 -1.73233656e-01 1.54016649e-01)
0.0113845       	(-4.81927998e-01 -3.21066539e-01 1.92176882e-01)	(-4.68563126e-01 -1.48541354e-01 3.86092074e-02)	(-1.33648720e-02 -1.72525185e-01 1.53567675e-01)
0.0114602       	(-4.82834453e-01 -3.08701632e-01 1.91896066e-01)	(-4.69530914e-01 -1.36847852e-01 3.87509094e-02)	(-1.33035390e-02 -1.71853780e-01 1.53145156e-01)
0.0115358       	(-4.83739850e-01 -2.96103360e-01 1.91578752e-01)	(-4.70492433e-01 -1.24966338e-01 3.88856058e-02)	(-1.32474163e-02 -1.71137021e-01 1.52693146e-01)
0.0116115       	(-4.84635627e-01 -2.83548291e-01 1.91274952e-01)	(-4.71449998e-01 -1.13091263e-01 3.90074348e-02)	(-1.31856289e-02 -1.70457027e-01 1.52267517e-01)
0.0116872       	(-4.85518819e-01 -2.70906120e-01 1.90938120e-01)	(-4.72389830e-01 -1.01174477e-01 3.91257611e-02)	(-1.31289890e-02 -1.69731643e-01 1.51812359e-01)
0.0117629       	(-4.86391221e-01 -2.58283987e-01 1.90625494e-01)	(-4.73324434e-01 -8.92407044e-02 3.92417376e-02)	(-1.30667875e-02 -1.69043283e-01 1.51383756e-01)
0.0118386       	(-4.87253922e-01 -2.45453652e-01 1.90284958e-01)	(-4.74244270e-01 -7.71438680e-02 3.93591602e-02)	(-1.30096519e-02 -1.68309784e-01 1.50925798e-01)
0.0119142       	(-4.88098876e-01 -2.32597458e-01 1.89976549e-01)	(-4.75151847e-01 -6.49849057e-02 3.94824435e-02)	(-1.29470288e-02 -1.67612552e-01 1.50494106e-01)
0.0119899       	(-4.88934346e-01 -2.19567915e-01 1.89649291e-01)	(-4.76044941e-01 -5.26969937e-02 3.96157886e-02)	(-1.28894043e-02 -1.66870921e-01 1.50033502e-01)
0.0120656       	(-4.89758552e-01 -2.06437847e-01 1.89357285e-01)	(-4.76932128e-01 -4.02721879e-02 3.97580110e-02)	(-1.28264232e-02 -1.66165659e-01 1.49599274e-01)
0.0121413       	(-4.90565231e-01 -1.93155325e-01 1.89049155e-01)	(-4.77796856e-01 -2.77381390e-02 3.99123371e-02)	(-1.27683747e-02 -1.65417186e-01 1.49136818e-01)
0.012217        	(-4.91356310e-01 -1.79772558e-01 1.88775203e-01)	(-4.78651237e-01 -1.50681883e-02 4.00748073e-02)	(-1.27050723e-02 -1.64704370e-01 1.48700396e-01)
0.0122926       	(-4.92138608e-01 -1.66134984e-01 1.88481098e-01)	(-4.79492013e-01 -2.18576008e-03 4.02447051e-02)	(-1.26465949e-02 -1.63949224e-01 1.48236393e-01)
0.0123683       	(-4.92905640e-01 -1.52418216e-01 1.88214533e-01)	(-4.80322650e-01 1.08110223e-02 4.04163299e-02)	(-1.25829900e-02 -1.63229239e-01 1.47798203e-01)
0.012444        	(-4.93659374e-01 -1.38516821e-01 1.87920766e-01)	(-4.81135211e-01 2.39521727e-02 4.05872661e-02)	(-1.25241629e-02 -1.62468994e-01 1.47333500e-01)
0.0125197       	(-4.94394165e-01 -1.24515340e-01 1.87645931e-01)	(-4.81933752e-01 3.72291360e-02 4.07512517e-02)	(-1.24604133e-02 -1.61744476e-01 1.46894679e-01)
0.0125954       	(-4.95127322e-01 -1.10300743e-01 1.87333235e-01)	(-4.82725978e-01 5.06805246e-02 4.09029459e-02)	(-1.24013435e-02 -1.60981267e-01 1.46430289e-01)
0.012671        	(-4.95858707e-01 -9.58632612e-02 1.87029249e-01)	(-4.83521241e-01 6.43892838e-02 4.10381578e-02)	(-1.23374655e-02 -1.60252545e-01 1.45991091e-01)
0.0127474       	(-4.96552067e-01 -8.14085517e-02 1.86688819e-01)	(-4.84274236e-01 7.80724329e-02 4.11646703e-02)	(-1.22778313e-02 -1.59480985e-01 1.45524148e-01)
0.0128237       	(-4.97237440e-01 -6.67979784e-02 1.86352779e-01)	(-4.85024013e-01 9.19453613e-02 4.12710783e-02)	(-1.22134268e-02 -1.58743340e-01 1.45081700e-01)
0.0129          	(-4.97883729e-01 -5.18614249e-02 1.85976708e-01)	(-4.85730169e-01 1.06107472e-01 4.13620287e-02)	(-1.21535596e-02 -1.57968897e-01 1.44614680e-01)
0.0129763       	(-4.98567766e-01 -3.68544869e-02 1.85614554e-01)	(-4.86478624e-01 1.20374801e-01 4.14417198e-02)	(-1.20891423e-02 -1.57229288e-01 1.44172834e-01)