# p  FACE_DATA 448
# x y z  p
0.29669727 -0.05 -0.060365504 99427.663
0.29106032 -0.05 -0.060308644 99422.064
0.28550468 -0.05 -0.060238035 99416.949
0.28002921 -0.05 -0.060153878 99411.858
0.27463282 -0.05 -0.060056431 99406.88
0.26931437 -0.05 -0.059945986 99402.012
0.2640728 -0.05 -0.059822806 99397.277
0.25890704 -0.05 -0.05968713 99392.675
0.25381603 -0.05 -0.059539239 99388.092
0.24879873 -0.05 -0.059379371 99383.68
0.24385413 -0.05 -0.059207703 99379.438
0.23898122 -0.05 -0.059024505 99375.302
0.23417899 -0.05 -0.058830014 99371.278
0.22944646 -0.05 -0.058624485 99367.312
0.22478268 -0.05 -0.058408155 99363.487
0.22018669 -0.05 -0.058181189 99359.816
0.21565756 -0.05 -0.057943845 99356.182
0.21119435 -0.05 -0.057696338 99352.713
0.20679616 -0.05 -0.057438796 99349.403
0.2024621 -0.05 -0.057171476 99346.18
0.19819128 -0.05 -0.056894586 99343.128
0.19398282 -0.05 -0.056608353 99340.096
0.18983586 -0.05 -0.056312972 99337.233
0.18574956 -0.05 -0.056008523 99334.552
0.1817231 -0.05 -0.055695253 99331.902
0.17775564 -0.05 -0.055373346 99329.449
0.17384637 -0.05 -0.055042959 99327.072
0.16999451 -0.05 -0.054704293 99324.842
0.16619925 -0.05 -0.054357503 99322.697
0.16245984 -0.05 -0.054002724 99320.734
0.15877551 -0.05 -0.053640079 99318.895
0.1551455 -0.05 -0.053269788 99317.149
0.15156909 -0.05 -0.052891961 99315.63
0.14804553 -0.05 -0.052506734 99314.148
0.14457412 -0.05 -0.052114251 99312.827
0.14115416 -0.05 -0.051714599 99311.631
0.13778494 -0.05 -0.051307935 99310.61
0.13446578 -0.05 -0.050894367 99309.731
0.13119601 -0.05 -0.050474062 99308.889
0.12797497 -0.05 -0.050047121 99308.273
0.12480201 -0.05 -0.049613569 99307.907
0.12167648 -0.05 -0.049173583 99307.569
0.11859775 -0.05 -0.048727278 99307.388
0.11556521 -0.05 -0.048274666 99307.365
0.11257826 -0.05 -0.047815816 99307.514
0.10963628 -0.05 -0.047350855 99307.755
0.1067387 -0.05 -0.04687981 99308.309
0.10388494 -0.05 -0.046402767 99308.95
0.10107441 -0.05 -0.04591988 99309.818
0.098306581 -0.05 -0.045431085 99310.984
0.095580901 -0.05 -0.044936431 99312.184
0.092896821 -0.05 -0.044436054 99313.483
0.090253838 -0.05 -0.043929867 99315.174
0.08765143 -0.05 -0.043417929 99316.991
0.085089087 -0.05 -0.0429003 99319.201
0.082566315 -0.05 -0.042377002 99321.501
0.080082626 -0.05 -0.041848072 99324.097
0.077637572 -0.05 -0.041313398 99326.927
0.075230697 -0.05 -0.040772968 99330.002
0.072861532 -0.05 -0.04022685 99333.252
0.070529633 -0.05 -0.039675056 99336.85
0.068234597 -0.05 -0.039117469 99340.876
0.065976012 -0.05 -0.038554042 99345.225
0.063753466 -0.05 -0.037984767 99349.803
0.061566586 -0.05 -0.037409546 99354.662
0.059415002 -0.05 -0.036828291 99359.85
0.057298353 -0.05 -0.036240935 99365.599
0.055216297 -0.05 -0.035647369 99371.917
0.053168488 -0.05 -0.035047557 99378.69
0.051154634 -0.05 -0.034441304 99386.035
0.049174448 -0.05 -0.033828456 99393.524
0.047227629 -0.05 -0.033208941 99401.515
0.045313923 -0.05 -0.032582574 99410.225
0.043433098 -0.05 -0.031949165 99419.831
0.041584966 -0.05 -0.031308434 99430.37
0.039769328 -0.05 -0.030660186 99441.378
0.037985992 -0.05 -0.030004267 99453.003
0.036234825 -0.05 -0.029340391 99465.681
0.034515732 -0.05 -0.028668247 99479.619
0.032828641 -0.05 -0.02798752 99494.986
0.031173504 -0.05 -0.027297895 99511.324
0.029550322 -0.05 -0.026599017 99528.249
0.027959154 -0.05 -0.025890457 99546.333
0.026400075 -0.05 -0.025171833 99566.606
0.024873242 -0.05 -0.024442661 99589.301
0.023378872 -0.05 -0.023702429 99613.896
0.021917233 -0.05 -0.022950632 99639.784
0.020488715 -0.05 -0.022186644 99667.912
0.019093734 -0.05 -0.021409899 99699.142
0.017732872 -0.05 -0.020619683 99733.245
0.016406801 -0.05 -0.019815244 99769.722
0.015116284 -0.05 -0.018995847 99808.975
0.013862276 -0.05 -0.01816066 99851.106
0.012645911 -0.05 -0.017308835 99898.362
0.011468521 -0.05 -0.016439495 99952.813
0.010331667 -0.05 -0.01555166 100015.04
0.0092371106 -0.05 -0.014644296 100085.58
0.0081869227 -0.05 -0.013716569 100164.82
0.0071836013 -0.05 -0.012767666 100250.47
0.0062298887 -0.05 -0.011796522 100342.98
0.0053288494 -0.05 -0.01080244 100440.72
0.0044842171 -0.05 -0.0097852869 100546.69
0.0036998655 -0.05 -0.0087447209 100661.01
0.0029798801 -0.05 -0.0076809534 100782.5
0.0023289887 -0.05 -0.0065953437 100908.78
0.0017517531 -0.05 -0.0054894027 101036.95
0.0012524931 -0.05 -0.0043656646 101162.61
0.00083510186 -0.05 -0.0032281984 101281.02
0.00050262358 -0.05 -0.0020814292 101385.36
0.00025676751 -0.05 -0.0009306763 101471.03
9.7567813e-05 -0.05 0.00021800193 101535.48
2.3478617e-05 -0.05 0.0013585525 101573.7
0.99686805 -0.05 -0.0062038192 100187.23
0.99064818 -0.05 -0.0070517849 100082.98
0.98442734 -0.05 -0.0078927556 100076.23
0.97820558 -0.05 -0.0087267583 100055.5
0.97198291 -0.05 -0.0095538995 100043.42
0.96575934 -0.05 -0.010374338 100030.69
0.95953489 -0.05 -0.011188056 100019.93
0.95330958 -0.05 -0.011995118 100009.79
0.94708342 -0.05 -0.012795679 100000.39
0.94085644 -0.05 -0.013589822 99991.395
0.93462866 -0.05 -0.014377555 99983.041
0.92840007 -0.05 -0.015158935 99974.975
0.92217069 -0.05 -0.015934041 99967.37
0.91594054 -0.05 -0.016702907 99960.063
0.90970964 -0.05 -0.017465685 99952.89
0.90347801 -0.05 -0.018222371 99946.145
0.89724564 -0.05 -0.018972999 99939.559
0.89101256 -0.05 -0.019717703 99933.077
0.88477878 -0.05 -0.020456498 99926.767
0.87854428 -0.05 -0.021189326 99920.827
0.87230911 -0.05 -0.021916326 99914.79
0.86607327 -0.05 -0.022637565 99908.994
0.85983676 -0.05 -0.023353017 99903.29
0.85359961 -0.05 -0.024062765 99897.733
0.84736181 -0.05 -0.024766874 99892.16
0.84112338 -0.05 -0.025465331 99886.775
0.8348843 -0.05 -0.026158097 99881.59
0.82864463 -0.05 -0.02684535 99876.206
0.82240434 -0.05 -0.027527049 99871.129
0.81616345 -0.05 -0.028203147 99865.982
0.80992196 -0.05 -0.028873724 99860.979
0.80367988 -0.05 -0.029538791 99855.946
0.79743721 -0.05 -0.030198378 99850.989
0.79119396 -0.05 -0.030852441 99846.133
0.78495016 -0.05 -0.031501067 99841.138
0.77870578 -0.05 -0.032144219 99836.349
0.77246084 -0.05 -0.032781866 99831.513
0.76621534 -0.05 -0.033414071 99826.702
0.75996929 -0.05 -0.034040817 99821.889
0.7537227 -0.05 -0.034662096 99817.128
0.74747557 -0.05 -0.03527788 99812.36
0.74122789 -0.05 -0.035888153 99807.626
0.73497968 -0.05 -0.036492899 99802.918
0.72873094 -0.05 -0.037092085 99798.305
0.72248166 -0.05 -0.037685743 99793.571
0.71623186 -0.05 -0.038273903 99788.771
0.70998153 -0.05 -0.038856391 99784.18
0.70373068 -0.05 -0.039433257 99779.32
0.69747931 -0.05 -0.040004467 99774.662
0.69122742 -0.05 -0.040569927 99769.911
0.68497501 -0.05 -0.041129695 99765.167
0.67872209 -0.05 -0.041683673 99760.475
0.67246867 -0.05 -0.042231869 99755.672
0.66621472 -0.05 -0.042774169 99751.004
0.65996026 -0.05 -0.043310472 99746.313
0.6537053 -0.05 -0.043840862 99741.487
0.64744983 -0.05 -0.044365253 99736.633
0.64119384 -0.05 -0.044883479 99731.806
0.63493735 -0.05 -0.045395508 99726.952
0.62868035 -0.05 -0.04590134 99722.043
0.62242285 -0.05 -0.046400841 99717.244
0.61616483 -0.05 -0.046893923 99712.417
0.60990632 -0.05 -0.047380585 99707.531
0.60364729 -0.05 -0.047860681 99702.702
0.59738776 -0.05 -0.048334138 99697.772
0.59112772 -0.05 -0.048800876 99692.84
0.58486719 -0.05 -0.049260801 99687.748
0.57860614 -0.05 -0.049713797 99682.736
0.57234458 -0.05 -0.050159722 99677.707
0.56608253 -0.05 -0.050598541 99672.653
0.55981998 -0.05 -0.051030132 99667.639
0.55355692 -0.05 -0.051454335 99662.665
0.54729335 -0.05 -0.051871077 99657.567
0.54102929 -0.05 -0.052280195 99652.512
0.53476472 -0.05 -0.052681551 99647.315
0.52849965 -0.05 -0.053075073 99642.068
0.5222341 -0.05 -0.05346059 99636.779
0.51596804 -0.05 -0.053837959 99631.426
0.50970149 -0.05 -0.054207013 99626.117
0.50343444 -0.05 -0.054567615 99620.851
0.49716692 -0.05 -0.054919639 99615.537
0.4908989 -0.05 -0.055262891 99610.181
0.48463038 -0.05 -0.055597164 99604.8
0.47836141 -0.05 -0.055922334 99599.317
0.47209195 -0.05 -0.056238266 99593.731
0.46582202 -0.05 -0.056544707 99588.145
0.45955163 -0.05 -0.056841442 99582.525
0.45328078 -0.05 -0.05712831 99576.887
0.44700947 -0.05 -0.057405127 99571.149
0.44073772 -0.05 -0.057671668 99565.342
0.43446554 -0.05 -0.057927692 99559.493
0.42819292 -0.05 -0.058172989 99553.699
0.42191989 -0.05 -0.058407359 99547.828
0.41564645 -0.05 -0.058630554 99541.909
0.40937261 -0.05 -0.058842297 99535.954
0.40309839 -0.05 -0.059042361 99529.956
0.3968238 -0.05 -0.059230462 99523.927
0.39054886 -0.05 -0.059406291 99517.905
0.38427358 -0.05 -0.059569633 99511.802
0.37799798 -0.05 -0.059720248 99505.681
0.37172207 -0.05 -0.059857738 99499.619
0.36544588 -0.05 -0.05998178 99493.529
0.35916945 -0.05 -0.060092136 99487.417
0.35289279 -0.05 -0.060188466 99481.339
0.34661591 -0.05 -0.060270417 99475.242
0.34033886 -0.05 -0.0603376 99469.196
0.33406167 -0.05 -0.060389685 99463.087
0.32778437 -0.05 -0.060426284 99457.058
0.321507 -0.05 -0.060446971 99451.101
0.31522959 -0.05 -0.060451356 99445.209
0.3089522 -0.05 -0.060439026 99438.974
0.30267486 -0.05 -0.060409548 99432.509
0.29762182 -0.05 0.059638837 99541.007
0.29198467 -0.05 0.059668837 99535.178
0.2864286 -0.05 0.059683836 99529.314
0.28095249 -0.05 0.059684053 99523.64
0.27555523 -0.05 0.059669766 99518.094
0.27023571 -0.05 0.059641278 99512.84
0.26499286 -0.05 0.059598874 99507.64
0.25982563 -0.05 0.059542807 99502.667
0.25473294 -0.05 0.059473374 99497.606
0.24971378 -0.05 0.059390831 99492.767
0.24476712 -0.05 0.059295368 99488.102
0.23989195 -0.05 0.059187273 99483.712
0.2350873 -0.05 0.059066797 99479.426
0.23035218 -0.05 0.05893421 99475.139
0.22568561 -0.05 0.058789765 99470.863
0.22108667 -0.05 0.058633639 99466.882
0.21655442 -0.05 0.058466107 99462.935
0.21208792 -0.05 0.058287398 99459.249
0.20768629 -0.05 0.058097651 99455.736
0.20334863 -0.05 0.057897142 99452.273
0.19907404 -0.05 0.05768609 99448.99
0.19486167 -0.05 0.057464733 99445.813
0.19071066 -0.05 0.057233283 99442.804
0.18662016 -0.05 0.056991831 99439.999
0.18258934 -0.05 0.056740637 99437.046
0.17861739 -0.05 0.056479898 99434.242
0.17470351 -0.05 0.056209783 99431.515
0.17084688 -0.05 0.055930506 99429.049
0.16704674 -0.05 0.055642234 99426.617
0.1633023 -0.05 0.055345112 99424.423
0.15961282 -0.05 0.055039278 99422.362
0.15597753 -0.05 0.054724962 99420.462
0.15239572 -0.05 0.054402284 99418.921
0.14886665 -0.05 0.054071392 99417.534
0.14538961 -0.05 0.053732442 99416.373
0.14196389 -0.05 0.053385533 99415.342
0.1385888 -0.05 0.053030829 99414.382
0.13526367 -0.05 0.052668452 99413.678
0.13198781 -0.05 0.052298576 99412.973
0.12876057 -0.05 0.051921315 99412.55
0.12558131 -0.05 0.051536702 99412.346
0.12244937 -0.05 0.051144926 99412.175
0.11936413 -0.05 0.050746111 99412.199
0.11632497 -0.05 0.050340277 99412.484
0.1133313 -0.05 0.049927504 99412.935
0.11038251 -0.05 0.049507927 99413.518
0.10747802 -0.05 0.049081583 99414.492
0.10461725 -0.05 0.048648567 99415.483
0.10179962 -0.05 0.048209041 99416.585
0.09902458 -0.05 0.04776295 99418.156
0.096291603 -0.05 0.047310352 99419.751
0.093600131 -0.05 0.04685139 99421.495
0.090949662 -0.05 0.046385985 99423.793
0.088339676 -0.05 0.045914205 99426.138
0.085769661 -0.05 0.045436118 99428.878
0.083239126 -0.05 0.044951753 99431.528
0.080747582 -0.05 0.044461153 99434.464
0.078294581 -0.05 0.043964216 99437.914
0.075879664 -0.05 0.043460935 99441.779
0.073502366 -0.05 0.042951385 99445.758
0.071162242 -0.05 0.042435586 99449.987
0.068858888 -0.05 0.041913426 99454.688
0.066591889 -0.05 0.041384866 99459.708
0.064360836 -0.05 0.040849902 99465.074
0.062165352 -0.05 0.040308445 99470.889
0.060005069 -0.05 0.039760411 99477.164
0.05787962 -0.05 0.039205737 99483.869
0.055788666 -0.05 0.038644322 99491.109
0.053731858 -0.05 0.038076133 99498.53
0.051708902 -0.05 0.037500981 99506.893
0.049719509 -0.05 0.036918715 99515.698
0.047763375 -0.05 0.03632927 99525.11
0.045840246 -0.05 0.035732463 99535.062
0.043949884 -0.05 0.035128109 99545.74
0.0420921 -0.05 0.03451593 99557.372
0.04026669 -0.05 0.033895734 99569.885
0.038473458 -0.05 0.033267371 99583.255
0.036712271 -0.05 0.032630554 99597.761
0.034983026 -0.05 0.031984977 99612.88
0.033285646 -0.05 0.031330325 99629.494
0.031620081 -0.05 0.030666284 99647.133
0.029986323 -0.05 0.029992499 99666.384
0.028384426 -0.05 0.029308539 99687.165
0.02681446 -0.05 0.028614022 99709.504
0.025276574 -0.05 0.027908463 99733.781
0.023770976 -0.05 0.027191343 99760.049
0.022297926 -0.05 0.026462155 99788.49
0.020857807 -0.05 0.025720268 99819.553
0.019451023 -0.05 0.02496511 99853.073
0.018078147 -0.05 0.024195955 99889.962
0.016739839 -0.05 0.023412044 99930.051
0.01543685 -0.05 0.022612629 99974.013
0.014170123 -0.05 0.021796862 100021.95
0.012940777 -0.05 0.020963879 100074.34
0.011750132 -0.05 0.020112783 100131.51
0.010599734 -0.05 0.019242571 100195.05
0.0094913266 -0.05 0.018352179 100265
0.0084269694 -0.05 0.017440744 100340.87
0.0074091466 -0.05 0.016507411 100423.75
0.0064405842 -0.05 0.015551078 100513.95
0.0055243352 -0.05 0.014570996 100610.87
0.0046641311 -0.05 0.013566977 100715.34
0.0038638397 -0.05 0.01253862 100825.92
0.0031275495 -0.05 0.011486073 100941.06
0.0024600086 -0.05 0.010410621 101058.54
0.0018658013 -0.05 0.0093137047 101175.19
0.0013492862 -0.05 0.0081977925 101286.25
0.00091441882 -0.05 0.0070668924 101385.58
0.00056431082 -0.05 0.005925382 101468.2
0.00030075339 -0.05 0.0047785539 101531.91
0.00012387402 -0.05 0.0036324649 101571.16
3.2220266e-05 -0.05 0.0024931912 101584.71
0.99687498 -0.05 -0.0053044936 99953.007
0.9906689 -0.05 -0.0043607941 99970.99
0.98446177 -0.05 -0.0034240741 99957.334
0.97825359 -0.05 -0.0024943068 99963.975
0.9720444 -0.05 -0.0015713862 99959.916
0.96583421 -0.05 -0.000655154 99960.832
0.95962304 -0.05 0.00025437251 99959.216
0.95341091 -0.05 0.0011572569 99958.711
0.94719783 -0.05 0.0020536535 99957.583
0.94098382 -0.05 0.0029436469 99956.695
0.93476891 -0.05 0.0038272419 99955.606
0.9285531 -0.05 0.0047044984 99954.573
0.92233641 -0.05 0.005575493 99953.428
0.91611885 -0.05 0.0064402605 99952.31
0.90990044 -0.05 0.0072989518 99951.106
0.9036812 -0.05 0.0081515644 99949.915
0.89746113 -0.05 0.0089981296 99948.636
0.89124027 -0.05 0.0098387833 99947.361
0.88501861 -0.05 0.010673539 99946.01
0.87879616 -0.05 0.01150234 99944.659
0.87257293 -0.05 0.012325324 99943.229
0.86634893 -0.05 0.013142558 99941.8
0.86012419 -0.05 0.013954015 99940.308
0.85389871 -0.05 0.01475978 99938.812
0.84767249 -0.05 0.015559917 99937.249
0.84144557 -0.05 0.01635441 99935.665
0.83521792 -0.05 0.017143225 99934.023
0.82898957 -0.05 0.017926536 99932.35
0.82276052 -0.05 0.018704302 99930.622
0.81653079 -0.05 0.019476478 99928.863
0.81030037 -0.05 0.020243144 99927.064
0.80406927 -0.05 0.021004309 99925.229
0.79783752 -0.05 0.021760003 99923.33
0.79160509 -0.05 0.022510183 99921.395
0.78537201 -0.05 0.023254934 99919.406
0.77913829 -0.05 0.023994223 99917.374
0.77290391 -0.05 0.024728015 99915.285
0.7666689 -0.05 0.025456373 99913.15
0.76043325 -0.05 0.026179283 99910.976
0.75419697 -0.05 0.026896734 99908.75
0.74796007 -0.05 0.027608699 99906.468
0.74172254 -0.05 0.028315162 99904.13
0.73548438 -0.05 0.029016108 99901.746
0.72924561 -0.05 0.029711502 99899.305
0.72300623 -0.05 0.030401378 99896.798
0.71676623 -0.05 0.031085763 99894.221
0.71052562 -0.05 0.031764485 99891.605
0.7042844 -0.05 0.032437595 99888.904
0.69804257 -0.05 0.033105056 99886.154
0.69180014 -0.05 0.033766777 99883.312
0.6855571 -0.05 0.034422815 99880.413
0.67931346 -0.05 0.03507307 99877.435
0.67306922 -0.05 0.035717553 99874.375
0.66682438 -0.05 0.036356148 99871.244
0.66057892 -0.05 0.036988754 99868.028
0.65433287 -0.05 0.037615457 99864.724
0.64808622 -0.05 0.038236169 99861.344
0.64183896 -0.05 0.038850724 99857.888
0.6355911 -0.05 0.03945909 99854.342
0.62934264 -0.05 0.040061269 99850.697
0.62309358 -0.05 0.040657125 99846.966
0.6168439 -0.05 0.04124657 99843.141
0.61059362 -0.05 0.041829603 99839.212
0.60434274 -0.05 0.04240608 99835.2
0.59809125 -0.05 0.042975927 99831.054
0.59183914 -0.05 0.043539063 99826.826
0.58558643 -0.05 0.044095394 99822.478
0.5793331 -0.05 0.044644806 99818.087
0.57307917 -0.05 0.045187154 99813.569
0.56682462 -0.05 0.045722406 99808.941
0.56056946 -0.05 0.046250438 99804.173
0.55431368 -0.05 0.046771089 99799.35
0.54805728 -0.05 0.047284289 99794.379
0.54180027 -0.05 0.047789874 99789.34
0.53554263 -0.05 0.048287706 99784.139
0.52928437 -0.05 0.048777712 99778.879
0.52302549 -0.05 0.049259721 99773.511
0.51676599 -0.05 0.049733592 99768.043
0.51050587 -0.05 0.050199156 99762.411
0.50424512 -0.05 0.050656276 99756.708
0.49798377 -0.05 0.051104828 99750.908
0.49172178 -0.05 0.051544614 99745.036
0.48545916 -0.05 0.051975431 99738.999
0.47919594 -0.05 0.052397155 99732.848
0.4729321 -0.05 0.052809647 99726.676
0.46666763 -0.05 0.053212656 99720.602
0.46040256 -0.05 0.05360597 99714.381
0.45413686 -0.05 0.053989423 99708.101
0.44787057 -0.05 0.054362835 99701.724
0.44160368 -0.05 0.054725978 99695.323
0.43533618 -0.05 0.055078612 99688.767
0.42906809 -0.05 0.055420526 99682.18
0.42279941 -0.05 0.055751523 99675.558
0.41653015 -0.05 0.056071351 99668.962
0.41026032 -0.05 0.056379734 99662.226
0.40398993 -0.05 0.056676446 99655.443
0.39771898 -0.05 0.056961203 99648.688
0.3914475 -0.05 0.057233694 99641.992
0.38517548 -0.05 0.057493706 99635.152
0.37890293 -0.05 0.057740995 99628.27
0.37262989 -0.05 0.057975165 99621.49
0.36635637 -0.05 0.058195896 99614.749
0.36008238 -0.05 0.058402944 99607.882
0.35380794 -0.05 0.058595973 99601.016
0.34753308 -0.05 0.058774627 99594.198
0.34125781 -0.05 0.058938517 99587.479
0.33498216 -0.05 0.059087313 99580.627
0.32870618 -0.05 0.059220627 99573.846
0.32242987 -0.05 0.059338031 99567.174
0.31615327 -0.05 0.059439137 99560.56
0.30987643 -0.05 0.05952353 99553.669
0.30359938 -0.05 0.059590774 99547.055
