# wallShearStress  FACE_DATA 448
# x y z  wallShearStress_x wallShearStress_y wallShearStress_z
0.29669727 -0.05 -0.060365504 -7.08517 4.0732148e-17 0.061922744
0.29106032 -0.05 -0.060308644 -6.9182564 -3.414724e-17 0.078221407
0.28550468 -0.05 -0.060238035 -6.7738129 2.9562399e-17 0.094039463
0.28002921 -0.05 -0.060153878 -6.6342849 9.3933208e-17 0.10942697
0.27463282 -0.05 -0.060056431 -6.5023193 5.7597601e-17 0.12467618
0.26931437 -0.05 -0.059945986 -6.3770745 1.3277957e-16 0.13958391
0.2640728 -0.05 -0.059822806 -6.2584895 -1.0083834e-16 0.15410204
0.25890704 -0.05 -0.05968713 -6.1465108 1.1334435e-16 0.16833321
0.25381603 -0.05 -0.059539239 -6.0414088 -5.8685671e-17 0.18223897
0.24879873 -0.05 -0.059379371 -5.9429792 -8.8931819e-17 0.19606779
0.24385413 -0.05 -0.059207703 -5.8498958 -1.5031459e-16 0.20963255
0.23898122 -0.05 -0.059024505 -5.7617526 1.8644501e-17 0.22296798
0.23417899 -0.05 -0.058830014 -5.6774522 -2.1168503e-16 0.23610767
0.22944646 -0.05 -0.058624485 -5.5965419 -1.8048746e-16 0.24916089
0.22478268 -0.05 -0.058408155 -5.5197117 -1.9934042e-16 0.26221066
0.22018669 -0.05 -0.058181189 -5.4464341 -1.8861163e-17 0.27516845
0.21565756 -0.05 -0.057943845 -5.3769095 2.0523064e-17 0.28799908
0.21119435 -0.05 -0.057696338 -5.3112437 -1.3095257e-16 0.3009278
0.20679616 -0.05 -0.057438796 -5.2485866 2.5575282e-16 0.31375994
0.2024621 -0.05 -0.057171476 -5.1892056 -6.8460345e-17 0.32654574
0.19819128 -0.05 -0.056894586 -5.133134 -4.8147496e-16 0.33936819
0.19398282 -0.05 -0.056608353 -5.0803423 -1.8069157e-16 0.35221048
0.18983586 -0.05 -0.056312972 -5.0310784 -2.4255346e-16 0.36527938
0.18574956 -0.05 -0.056008523 -4.9843898 -8.9961084e-17 0.37838861
0.1817231 -0.05 -0.055695253 -4.9406671 -2.2650623e-16 0.39154522
0.17775564 -0.05 -0.055373346 -4.9001635 8.4243579e-17 0.40496313
0.17384637 -0.05 -0.055042959 -4.8621015 -8.0737779e-17 0.41841625
0.16999451 -0.05 -0.054704293 -4.826936 4.5221217e-16 0.43212152
0.16619925 -0.05 -0.054357503 -4.7942387 -3.4020747e-16 0.44601761
0.16245984 -0.05 -0.054002724 -4.7640656 -2.1176889e-16 0.46022218
0.15877551 -0.05 -0.053640079 -4.7360214 1.1022712e-16 0.4745644
0.1551455 -0.05 -0.053269788 -4.7105613 3.3739915e-16 0.48921415
0.15156909 -0.05 -0.052891961 -4.6873015 -2.0949721e-16 0.5041821
0.14804553 -0.05 -0.052506734 -4.666112 4.3343187e-18 0.51938363
0.14457412 -0.05 -0.052114251 -4.647518 1.9590958e-16 0.53509191
0.14115416 -0.05 -0.051714599 -4.6309056 -4.1551465e-16 0.55113385
0.13778494 -0.05 -0.051307935 -4.6162269 3.2447738e-16 0.56753193
0.13446578 -0.05 -0.050894367 -4.6032969 5.3064524e-16 0.58427498
0.13119601 -0.05 -0.050474062 -4.5922442 2.8205049e-17 0.6014107
0.12797497 -0.05 -0.050047121 -4.5828224 -3.3225047e-16 0.61912963
0.12480201 -0.05 -0.049613569 -4.5737932 -1.3006946e-16 0.63698945
0.12167648 -0.05 -0.049173583 -4.5661906 -4.9558713e-16 0.6551642
0.11859775 -0.05 -0.048727278 -4.560963 9.7231995e-18 0.67410372
0.11556521 -0.05 -0.048274666 -4.5573576 -2.8405088e-16 0.69362292
0.11257826 -0.05 -0.047815816 -4.5554826 -1.6992479e-16 0.71370365
0.10963628 -0.05 -0.047350855 -4.555712 -1.042164e-16 0.73456335
0.1067387 -0.05 -0.04687981 -4.5579199 -3.9204033e-16 0.75614333
0.10388494 -0.05 -0.046402767 -4.5615335 3.9023827e-16 0.77821129
0.10107441 -0.05 -0.04591988 -4.567528 1.9924378e-16 0.80129268
0.098306581 -0.05 -0.045431085 -4.5748331 5.0663848e-16 0.82502967
0.095580901 -0.05 -0.044936431 -4.5839871 -2.9090185e-16 0.84951258
0.092896821 -0.05 -0.044436054 -4.5970857 3.4586312e-16 0.87563077
0.090253838 -0.05 -0.043929867 -4.6132366 5.2472911e-16 0.90292639
0.08765143 -0.05 -0.043417929 -4.6314338 -6.9241076e-17 0.93109726
0.085089087 -0.05 -0.0429003 -4.6521673 -3.2224473e-16 0.96061907
0.082566315 -0.05 -0.042377002 -4.673755 2.3312321e-17 0.99122617
0.080082626 -0.05 -0.041848072 -4.6969604 -9.3071019e-17 1.0236056
0.077637572 -0.05 -0.041313398 -4.7200916 -2.5833022e-16 1.0570992
0.075230697 -0.05 -0.040772968 -4.7436861 -4.1618679e-17 1.0915751
0.072861532 -0.05 -0.04022685 -4.7678257 6.69842e-16 1.1270821
0.070529633 -0.05 -0.039675056 -4.7921353 -1.0256059e-16 1.163812
0.068234597 -0.05 -0.039117469 -4.8153631 -5.6141134e-16 1.2013608
0.065976012 -0.05 -0.038554042 -4.838038 4.9437934e-16 1.2398553
0.063753466 -0.05 -0.037984767 -4.8619614 -9.0908776e-17 1.280282
0.061566586 -0.05 -0.037409546 -4.888051 -4.0150615e-16 1.3230316
0.059415002 -0.05 -0.036828291 -4.9162225 -2.6351351e-16 1.3680728
0.057298353 -0.05 -0.036240935 -4.9456916 5.5154657e-16 1.4150529
0.055216297 -0.05 -0.035647369 -4.975078 6.0541162e-16 1.4635358
0.053168488 -0.05 -0.035047557 -5.004269 6.8420882e-16 1.5137555
0.051154634 -0.05 -0.034441304 -5.033476 5.0621819e-16 1.5659982
0.049174448 -0.05 -0.033828456 -5.0620019 -5.6262502e-16 1.6204308
0.047227629 -0.05 -0.033208941 -5.0921541 -7.7668433e-17 1.6784273
0.045313923 -0.05 -0.032582574 -5.1217255 -1.7354903e-16 1.7387948
0.043433098 -0.05 -0.031949165 -5.1491224 7.4210009e-16 1.8012989
0.041584966 -0.05 -0.031308434 -5.1748459 -5.7039894e-16 1.8658113
0.039769328 -0.05 -0.030660186 -5.2001159 -2.6019147e-16 1.9338181
0.037985992 -0.05 -0.030004267 -5.2291033 1.5013336e-16 2.0077586
0.036234825 -0.05 -0.029340391 -5.2607511 -6.082554e-17 2.0866924
0.034515732 -0.05 -0.028668247 -5.2902978 -2.7363956e-16 2.1687119
0.032828641 -0.05 -0.02798752 -5.3162105 2.3481727e-16 2.2526488
0.031173504 -0.05 -0.027297895 -5.3353012 -8.986181e-18 2.3385486
0.029550322 -0.05 -0.026599017 -5.3490852 -7.3686412e-17 2.430274
0.027959154 -0.05 -0.025890457 -5.3604733 -3.1997447e-16 2.5284443
0.026400075 -0.05 -0.025171833 -5.36248 1.0191963e-15 2.6270203
0.024873242 -0.05 -0.024442661 -5.3479752 1.1013166e-15 2.7230189
0.023378872 -0.05 -0.023702429 -5.3265891 -1.0439066e-15 2.8204657
0.021917233 -0.05 -0.022950632 -5.3077579 2.4613816e-16 2.9263682
0.020488715 -0.05 -0.022186644 -5.2881381 3.5356868e-16 3.0375272
0.019093734 -0.05 -0.021409899 -5.2391592 -1.4866855e-17 3.1375062
0.017732872 -0.05 -0.020619683 -5.1310842 -2.6149322e-16 3.2138592
0.016406801 -0.05 -0.019815244 -4.9580969 2.1713506e-16 3.2673133
0.015116284 -0.05 -0.018995847 -4.7425849 -1.4402326e-16 3.3201875
0.013862276 -0.05 -0.01816066 -4.5176338 -3.0044183e-17 3.4067201
0.012645911 -0.05 -0.017308835 -4.3365809 4.3642327e-16 3.5695992
0.011468521 -0.05 -0.016439495 -4.1964335 4.5888557e-16 3.8259115
0.010331667 -0.05 -0.01555166 -4.0846544 -1.8777695e-17 4.1807818
0.0092371106 -0.05 -0.014644296 -4.0095238 -2.0473848e-16 4.6158235
0.0081869227 -0.05 -0.013716569 -4.0194388 5.6865018e-16 5.1160925
0.0071836013 -0.05 -0.012767666 -4.1143906 -3.8842786e-16 5.6634285
0.0062298887 -0.05 -0.011796522 -4.1648884 6.3343645e-16 6.1517696
0.0053288494 -0.05 -0.01080244 -4.090608 4.5150921e-17 6.5038284
0.0044842171 -0.05 -0.0097852869 -3.8758234 -3.3770141e-16 6.7220334
0.0036998655 -0.05 -0.0087447209 -3.5354256 1.022888e-17 6.7556835
0.0029798801 -0.05 -0.0076809534 -3.0858954 -1.0613205e-16 6.5834689
0.0023289887 -0.05 -0.0065953437 -2.5673277 3.7472392e-16 6.2210675
0.0017517531 -0.05 -0.0054894027 -2.0254561 -2.1372806e-16 5.6849575
0.0012524931 -0.05 -0.0043656646 -1.4936733 3.2799887e-17 4.9582418
0.00083510186 -0.05 -0.0032281984 -1.0085052 1.5910452e-16 4.0973056
0.00050262358 -0.05 -0.0020814292 -0.63004746 3.2933052e-16 3.1410483
0.00025676751 -0.05 -0.0009306763 -0.38198897 2.6520208e-17 2.1292314
9.7567813e-05 -0.05 0.00021800193 -0.23038295 -1.4082756e-17 1.1884525
2.3478617e-05 -0.05 0.0013585525 -0.15803857 -1.6189533e-17 0.52433323
0.99686805 -0.05 -0.0062038192 -62.772809 -8.836337e-16 -8.2945571
0.99064818 -0.05 -0.0070517849 -60.061123 -9.807772e-16 -8.1675136
0.98442734 -0.05 -0.0078927556 -60.71818 1.0243801e-15 -8.1367031
0.97820558 -0.05 -0.0087267583 -60.058005 8.466813e-16 -7.9992316
0.97198291 -0.05 -0.0095538995 -59.642606 -1.732729e-15 -7.8765914
0.96575934 -0.05 -0.010374338 -59.135903 -6.6940779e-16 -7.7461888
0.95953489 -0.05 -0.011188056 -58.637317 -1.1672729e-15 -7.6168582
0.95330958 -0.05 -0.011995118 -58.123394 -9.8414484e-16 -7.4886334
0.94708342 -0.05 -0.012795679 -57.602891 8.459064e-16 -7.361126
0.94085644 -0.05 -0.013589822 -57.077118 2.5576868e-17 -7.2348106
0.93462866 -0.05 -0.014377555 -56.545692 9.7427333e-16 -7.1087673
0.92840007 -0.05 -0.015158935 -56.010164 -3.9084178e-16 -6.9846329
0.92217069 -0.05 -0.015934041 -55.468562 -3.1863787e-16 -6.8609
0.91594054 -0.05 -0.016702907 -54.922185 -2.1620958e-15 -6.7388762
0.90970964 -0.05 -0.017465685 -54.370695 -5.5122345e-17 -6.617852
0.90347801 -0.05 -0.018222371 -53.814145 9.0526715e-16 -6.4972476
0.89724564 -0.05 -0.018972999 -53.251296 3.8102719e-16 -6.3780161
0.89101256 -0.05 -0.019717703 -52.686143 -7.3422352e-17 -6.2599623
0.88477878 -0.05 -0.020456498 -52.118637 4.549548e-16 -6.1425062
0.87854428 -0.05 -0.021189326 -51.550645 1.5061907e-15 -6.0264268
0.87230911 -0.05 -0.021916326 -50.983089 -1.9880592e-15 -5.9126745
0.86607327 -0.05 -0.022637565 -50.417673 1.3121286e-16 -5.7998176
0.85983676 -0.05 -0.023353017 -49.852732 -8.1068963e-16 -5.6887468
0.85359961 -0.05 -0.024062765 -49.288955 -5.3150681e-16 -5.5792355
0.84736181 -0.05 -0.024766874 -48.725079 2.0468125e-17 -5.4710402
0.84112338 -0.05 -0.025465331 -48.161839 -3.4717744e-16 -5.3637759
0.8348843 -0.05 -0.026158097 -47.596353 -1.7045899e-15 -5.2578813
0.82864463 -0.05 -0.02684535 -47.029728 8.4142589e-16 -5.1536781
0.82240434 -0.05 -0.027527049 -46.45896 7.4008087e-17 -5.0490526
0.81616345 -0.05 -0.028203147 -45.885003 -2.2385897e-16 -4.9460681
0.80992196 -0.05 -0.028873724 -45.308282 3.247508e-16 -4.8434755
0.80367988 -0.05 -0.029538791 -44.731527 2.3132236e-16 -4.742295
0.79743721 -0.05 -0.030198378 -44.156576 1.2376336e-15 -4.641991
0.79119396 -0.05 -0.030852441 -43.586448 -1.7304047e-15 -4.5433619
0.78495016 -0.05 -0.031501067 -43.022431 9.188058e-16 -4.4466404
0.77870578 -0.05 -0.032144219 -42.464419 7.3970888e-16 -4.3509881
0.77246084 -0.05 -0.032781866 -41.91143 3.0796134e-17 -4.2573535
0.76621534 -0.05 -0.033414071 -41.364006 6.8051695e-16 -4.165152
0.75996929 -0.05 -0.034040817 -40.819974 -8.8625945e-16 -4.0743106
0.7537227 -0.05 -0.034662096 -40.276326 1.3752234e-16 -3.9844992
0.74747557 -0.05 -0.03527788 -39.728515 3.0279045e-16 -3.895242
0.74122789 -0.05 -0.035888153 -39.176427 -5.8947501e-16 -3.8063884
0.73497968 -0.05 -0.036492899 -38.620147 3.3147622e-16 -3.7179269
0.72873094 -0.05 -0.037092085 -38.062865 5.6425053e-16 -3.6301412
0.72248166 -0.05 -0.037685743 -37.509243 2.6210637e-16 -3.5437234
0.71623186 -0.05 -0.038273903 -36.963668 2.3314177e-16 -3.4584753
0.70998153 -0.05 -0.038856391 -36.425833 1.2262156e-16 -3.3743908
0.70373068 -0.05 -0.039433257 -35.897068 2.4161536e-16 -3.2927289
0.69747931 -0.05 -0.040004467 -35.374928 5.1845828e-17 -3.2117341
0.69122742 -0.05 -0.040569927 -34.856784 -4.2057746e-17 -3.1327114
0.68497501 -0.05 -0.041129695 -34.338028 -2.0373608e-16 -3.0542502
0.67872209 -0.05 -0.041683673 -33.813127 -1.498979e-16 -2.9761314
0.67246867 -0.05 -0.042231869 -33.280019 9.4554051e-16 -2.898036
0.66621472 -0.05 -0.042774169 -32.740953 -1.053687e-16 -2.8195125
0.65996026 -0.05 -0.043310472 -32.203161 4.8542408e-16 -2.7420321
0.6537053 -0.05 -0.043840862 -31.674693 -1.8645772e-16 -2.666024
0.64744983 -0.05 -0.044365253 -31.158118 3.0851967e-16 -2.5912338
0.64119384 -0.05 -0.044883479 -30.65244 -4.8075328e-16 -2.5181724
0.63493735 -0.05 -0.045395508 -30.155218 8.9099787e-17 -2.4468802
0.62868035 -0.05 -0.04590134 -29.661923 9.9664516e-16 -2.3768249
0.62242285 -0.05 -0.046400841 -29.163733 1.6528267e-16 -2.3070509
0.61616483 -0.05 -0.046893923 -28.653688 -8.3006778e-16 -2.2374724
0.60990632 -0.05 -0.047380585 -28.12942 -2.3665546e-19 -2.1672096
0.60364729 -0.05 -0.047860681 -27.598696 1.4408516e-16 -2.0966021
0.59738776 -0.05 -0.048334138 -27.074326 -7.9550379e-17 -2.0270903
0.59112772 -0.05 -0.048800876 -26.562603 8.8502403e-17 -1.9590699
0.58486719 -0.05 -0.049260801 -26.061218 1.884553e-16 -1.8928335
0.57860614 -0.05 -0.049713797 -25.569373 3.2716224e-16 -1.8278846
0.57234458 -0.05 -0.050159722 -25.081324 9.4377717e-16 -1.7644779
0.56608253 -0.05 -0.050598541 -24.589222 2.3890577e-18 -1.7019794
0.55981998 -0.05 -0.051030132 -24.080447 -4.9333932e-16 -1.6392394
0.55355692 -0.05 -0.051454335 -23.547086 -5.2823452e-16 -1.5756024
0.54729335 -0.05 -0.051871077 -22.99537 -4.9033192e-16 -1.5112011
0.54102929 -0.05 -0.052280195 -22.445162 7.3911705e-16 -1.4470685
0.53476472 -0.05 -0.052681551 -21.908108 1.7349378e-16 -1.3847614
0.52849965 -0.05 -0.053075073 -21.383778 -6.8964709e-17 -1.3240936
0.5222341 -0.05 -0.05346059 -20.872223 9.8611867e-17 -1.265359
0.51596804 -0.05 -0.053837959 -20.371629 -3.4769692e-16 -1.208981
0.50970149 -0.05 -0.054207013 -19.874769 -1.7678449e-16 -1.1539348
0.50343444 -0.05 -0.054567615 -19.367911 7.6289178e-16 -1.0997713
0.49716692 -0.05 -0.054919639 -18.833848 -3.755466e-16 -1.0449931
0.4908989 -0.05 -0.055262891 -18.276671 -6.7903801e-16 -0.98919795
0.48463038 -0.05 -0.055597164 -17.729787 -7.2935028e-16 -0.93421952
0.47836141 -0.05 -0.055922334 -17.193924 4.7821113e-16 -0.8804377
0.47209195 -0.05 -0.056238266 -16.67179 1.3622082e-16 -0.82804371
0.46582202 -0.05 -0.056544707 -16.160264 4.4564384e-17 -0.77730573
0.45955163 -0.05 -0.056841442 -15.657526 -4.2530797e-16 -0.72827617
0.45328078 -0.05 -0.05712831 -15.163767 -7.7731771e-17 -0.68091914
0.44700947 -0.05 -0.057405127 -14.67823 3.2913062e-16 -0.63513315
0.44073772 -0.05 -0.057671668 -14.200912 3.2639223e-16 -0.59083019
0.43446554 -0.05 -0.057927692 -13.730594 1.3041057e-16 -0.54798875
0.42819292 -0.05 -0.058172989 -13.268097 1.7555527e-16 -0.50667684
0.42191989 -0.05 -0.058407359 -12.817293 -2.0943144e-16 -0.46697765
0.41564645 -0.05 -0.058630554 -12.382231 2.3930311e-16 -0.42883421
0.40937261 -0.05 -0.058842297 -11.964563 3.5199468e-16 -0.39235233
0.40309839 -0.05 -0.059042361 -11.565487 -1.8508189e-16 -0.35758498
0.3968238 -0.05 -0.059230462 -11.182832 -1.002572e-16 -0.32428784
0.39054886 -0.05 -0.059406291 -10.819058 1.4440887e-16 -0.29247732
0.38427358 -0.05 -0.059569633 -10.476783 8.047366e-17 -0.26213043
0.37799798 -0.05 -0.059720248 -10.156142 8.2431767e-17 -0.23325916
0.37172207 -0.05 -0.059857738 -9.8523184 -1.0872718e-16 -0.20557494
0.36544588 -0.05 -0.05998178 -9.5626218 -5.9940353e-17 -0.17912666
0.35916945 -0.05 -0.060092136 -9.2856102 5.5910815e-17 -0.15366749
0.35289279 -0.05 -0.060188466 -9.0203702 1.0930319e-16 -0.12920899
0.34661591 -0.05 -0.060270417 -8.7657684 4.1903457e-17 -0.10577875
0.34033886 -0.05 -0.0603376 -8.5216183 -1.2902167e-17 -0.08318386
0.33406167 -0.05 -0.060389685 -8.287114 -2.5332966e-17 -0.061221597
0.32778437 -0.05 -0.060426284 -8.0620642 2.0407089e-18 -0.037510268
0.321507 -0.05 -0.060446971 -7.845364 9.952049e-19 -0.016214801
0.31522959 -0.05 -0.060451356 -7.6371477 -3.4381556e-19 0.0047431129
0.3089522 -0.05 -0.060439026 -7.4390513 2.7439779e-18 0.025557523
0.30267486 -0.05 -0.060409548 -7.262438 -1.2542169e-17 0.044832022
0.29762182 -0.05 0.059638837 -6.7396082 -1.0007339e-17 0.028058343
0.29198467 -0.05 0.059668837 -7.0277647 4.6925596e-18 0.010887245
0.2864286 -0.05 0.059683836 -7.3049252 -8.0068864e-18 -0.0081566446
0.28095249 -0.05 0.059684053 -7.5843555 -5.1913581e-18 -0.029628285
0.27555523 -0.05 0.059669766 -7.8662719 -1.1504558e-17 -0.052160573
0.27023571 -0.05 0.059641278 -8.1495662 -2.8771138e-17 -0.075293614
0.26499286 -0.05 0.059598874 -8.4327935 1.1433875e-17 -0.10041515
0.25982563 -0.05 0.059542807 -8.7164022 9.5273147e-17 -0.12780704
0.25473294 -0.05 0.059473374 -9.0011657 8.6076245e-17 -0.15720323
0.24971378 -0.05 0.059390831 -9.2870193 3.9450735e-18 -0.18870273
0.24476712 -0.05 0.059295368 -9.5725444 8.9060155e-17 -0.22186644
0.23989195 -0.05 0.059187273 -9.8568272 1.036955e-16 -0.25682807
0.2350873 -0.05 0.059066797 -10.137253 6.874957e-17 -0.29339142
0.23035218 -0.05 0.05893421 -10.410815 1.6808644e-16 -0.33171801
0.22568561 -0.05 0.058789765 -10.67717 4.0905565e-17 -0.3719392
0.22108667 -0.05 0.058633639 -10.935174 1.5427414e-17 -0.4140013
0.21655442 -0.05 0.058466107 -11.185452 1.3020589e-17 -0.45768624
0.21208792 -0.05 0.058287398 -11.432798 -7.8536195e-17 -0.50352435
0.20768629 -0.05 0.058097651 -11.680824 1.1971899e-16 -0.55103796
0.20334863 -0.05 0.057897142 -11.932799 1.3228723e-16 -0.60010998
0.19907404 -0.05 0.05768609 -12.184416 -1.4376627e-16 -0.6506357
0.19486167 -0.05 0.057464733 -12.428233 3.8748882e-17 -0.70232094
0.19071066 -0.05 0.057233283 -12.654536 7.7306457e-16 -0.75570125
0.18662016 -0.05 0.056991831 -12.857137 3.3450373e-16 -0.8110922
0.18258934 -0.05 0.056740637 -13.037664 -6.9976416e-17 -0.86968283
0.17861739 -0.05 0.056479898 -13.215164 -2.0694195e-16 -0.93290038
0.17470351 -0.05 0.056209783 -13.408686 -2.9915848e-16 -1.0005624
0.17084688 -0.05 0.055930506 -13.631197 6.9800241e-16 -1.0729467
0.16704674 -0.05 0.055642234 -13.86971 -1.8486011e-16 -1.1488454
0.1633023 -0.05 0.055345112 -14.123758 4.5878877e-16 -1.2288211
0.15961282 -0.05 0.055039278 -14.395625 2.3070085e-16 -1.3123247
0.15597753 -0.05 0.054724962 -14.695515 4.5065827e-16 -1.4001132
0.15239572 -0.05 0.054402284 -15.029108 -5.53106e-16 -1.4933098
0.14886665 -0.05 0.054071392 -15.389444 -1.0905425e-16 -1.5916456
0.14538961 -0.05 0.053732442 -15.76442 5.0622949e-16 -1.6949468
0.14196389 -0.05 0.053385533 -16.14349 -2.911801e-16 -1.8023241
0.1385888 -0.05 0.053030829 -16.520836 8.6182493e-16 -1.91354
0.13526367 -0.05 0.052668452 -16.892656 4.7767577e-16 -2.0285639
0.13198781 -0.05 0.052298576 -17.256716 -6.5650728e-16 -2.1468929
0.12876057 -0.05 0.051921315 -17.611835 -2.9169329e-16 -2.2688776
0.12558131 -0.05 0.051536702 -17.955763 1.3381613e-16 -2.3936004
0.12244937 -0.05 0.051144926 -18.289172 3.4158998e-16 -2.5223872
0.11936413 -0.05 0.050746111 -18.611721 8.0255341e-17 -2.6546898
0.11632497 -0.05 0.050340277 -18.921923 5.4975959e-16 -2.790125
0.1133313 -0.05 0.049927504 -19.219444 -4.5994923e-16 -2.9282756
0.11038251 -0.05 0.049507927 -19.504789 -2.1524343e-16 -3.0694031
0.10747802 -0.05 0.049081583 -19.77651 -2.3326982e-16 -3.2133216
0.10461725 -0.05 0.048648567 -20.035139 -1.3657558e-16 -3.3596591
0.10179962 -0.05 0.048209041 -20.282771 -8.6595003e-17 -3.5095172
0.09902458 -0.05 0.04776295 -20.517422 -2.6936808e-16 -3.6622598
0.096291603 -0.05 0.047310352 -20.739659 5.7981182e-16 -3.8173218
0.093600131 -0.05 0.04685139 -20.95068 6.4932608e-16 -3.9758669
0.090949662 -0.05 0.046385985 -21.147981 -1.9174355e-16 -4.1370399
0.088339676 -0.05 0.045914205 -21.332688 -6.3600122e-17 -4.3004258
0.085769661 -0.05 0.045436118 -21.504752 -1.7002434e-16 -4.4665636
0.083239126 -0.05 0.044951753 -21.665383 -4.1337957e-16 -4.6353241
0.080747582 -0.05 0.044461153 -21.814291 1.3277618e-16 -4.8071765
0.078294581 -0.05 0.043964216 -21.950708 -1.6300234e-16 -4.9817375
0.075879664 -0.05 0.043460935 -22.072319 -5.2057906e-16 -5.1582152
0.073502366 -0.05 0.042951385 -22.179119 -4.9281258e-17 -5.3369824
0.071162242 -0.05 0.042435586 -22.270577 -1.1226177e-16 -5.5187052
0.068858888 -0.05 0.041913426 -22.347599 -4.7998229e-17 -5.7025721
0.066591889 -0.05 0.041384866 -22.407404 -2.636976e-16 -5.8885207
0.064360836 -0.05 0.040849902 -22.450559 6.2875041e-16 -6.0768269
0.062165352 -0.05 0.040308445 -22.476581 1.7307801e-16 -6.267302
0.060005069 -0.05 0.039760411 -22.484996 1.4837128e-16 -6.4596139
0.05787962 -0.05 0.039205737 -22.475619 7.828998e-16 -6.6538136
0.055788666 -0.05 0.038644322 -22.447795 -1.3660409e-17 -6.8494201
0.053731858 -0.05 0.038076133 -22.402402 4.766328e-16 -7.0475474
0.051708902 -0.05 0.037500981 -22.337555 -1.856516e-16 -7.2480314
0.049719509 -0.05 0.036918715 -22.251993 -6.1838074e-16 -7.4493843
0.047763375 -0.05 0.03632927 -22.147106 -6.5252492e-16 -7.6523777
0.045840246 -0.05 0.035732463 -22.022069 5.3529276e-16 -7.8573153
0.043949884 -0.05 0.035128109 -21.875906 5.9357311e-16 -8.0636994
0.0420921 -0.05 0.03451593 -21.706623 7.2369225e-17 -8.2705506
0.04026669 -0.05 0.033895734 -21.514809 -7.3987171e-16 -8.4781197
0.038473458 -0.05 0.033267371 -21.297746 -7.0760499e-17 -8.6854178
0.036712271 -0.05 0.032630554 -21.057027 -7.0346407e-16 -8.8931068
0.034983026 -0.05 0.031984977 -20.799675 4.8795948e-16 -9.0999173
0.033285646 -0.05 0.031330325 -20.511194 -3.1112076e-16 -9.3042025
0.031620081 -0.05 0.030666284 -20.196141 -3.5869158e-16 -9.5053472
0.029986323 -0.05 0.029992499 -19.854538 7.320551e-17 -9.7060477
0.028384426 -0.05 0.029308539 -19.481454 -1.8028259e-16 -9.8999722
0.02681446 -0.05 0.028614022 -19.078994 1.2880052e-15 -10.090266
0.025276574 -0.05 0.027908463 -18.643935 -7.2586553e-16 -10.272498
0.023770976 -0.05 0.027191343 -18.177246 6.1573981e-17 -10.447111
0.022297926 -0.05 0.026462155 -17.677011 -2.8800835e-16 -10.611334
0.020857807 -0.05 0.025720268 -17.141876 -1.2815993e-16 -10.762794
0.019451023 -0.05 0.02496511 -16.571783 2.0853671e-16 -10.900336
0.018078147 -0.05 0.024195955 -15.963999 -8.3377554e-16 -11.018937
0.016739839 -0.05 0.023412044 -15.31807 -2.4646556e-16 -11.116147
0.01543685 -0.05 0.022612629 -14.63356 -4.8345852e-17 -11.187453
0.014170123 -0.05 0.021796862 -13.909869 -1.0531319e-15 -11.228813
0.012940777 -0.05 0.020963879 -13.147572 -2.5872604e-16 -11.235022
0.011750132 -0.05 0.020112783 -12.346835 4.2635383e-16 -11.201851
0.010599734 -0.05 0.019242571 -11.50651 3.2473472e-17 -11.117426
0.0094913266 -0.05 0.018352179 -10.626845 -1.7199564e-16 -10.972424
0.0084269694 -0.05 0.017440744 -9.7133198 7.0869658e-17 -10.765125
0.0074091466 -0.05 0.016507411 -8.7737824 -3.4277336e-16 -10.486022
0.0064405842 -0.05 0.015551078 -7.8107468 6.7042098e-17 -10.122697
0.0055243352 -0.05 0.014570996 -6.831778 -2.4626514e-17 -9.6674621
0.0046641311 -0.05 0.013566977 -5.8522311 4.2320839e-16 -9.0998031
0.0038638397 -0.05 0.01253862 -4.888605 -2.4566236e-16 -8.4110082
0.0031275495 -0.05 0.011486073 -3.9598728 1.399786e-16 -7.6088599
0.0024600086 -0.05 0.010410621 -3.0891344 1.0389522e-16 -6.6983779
0.0018658013 -0.05 0.0093137047 -2.2950998 -3.8583962e-16 -5.6895649
0.0013492862 -0.05 0.0081977925 -1.5819685 -2.9845461e-17 -4.603952
0.00091441882 -0.05 0.0070668924 -1.0186425 2.5712368e-16 -3.4874001
0.00056431082 -0.05 0.005925382 -0.59965636 1.94337e-17 -2.3724225
0.00030075339 -0.05 0.0047785539 -0.34886368 3.4843523e-17 -1.3587057
0.00012387402 -0.05 0.0036324649 -0.20448395 -1.0617232e-16 -0.65345178
3.2220266e-05 -0.05 0.0024931912 -0.15643646 4.4062832e-18 -0.056025637
0.99687498 -0.05 -0.0053044936 0.1035762 -2.9533587e-16 0.18883634
0.9906689 -0.05 -0.0043607941 -0.0025956407 -3.6876683e-16 0.00011657888
0.98446177 -0.05 -0.0034240741 0.006368501 -2.0145986e-16 -0.00082208795
0.97825359 -0.05 -0.0024943068 -0.0023666599 -8.5306678e-16 0.00026827167
0.9720444 -0.05 -0.0015713862 0.0029096736 5.7912506e-16 -0.00023874833
0.96583421 -0.05 -0.000655154 0.00066944859 5.5486364e-16 -8.3974247e-06
0.95962304 -0.05 0.00025437251 0.0020053122 4.7261492e-16 -0.00020843996
0.95341091 -0.05 0.0011572569 0.0015665131 4.4027682e-16 -0.00012423741
0.94719783 -0.05 0.0020536535 0.0019494621 -2.2289139e-17 -0.00018796098
0.94098382 -0.05 0.0029436469 0.0019358329 -7.7230307e-16 -0.0001605227
0.93476891 -0.05 0.0038272419 0.0021025084 7.0288827e-16 -0.0001915571
0.9285531 -0.05 0.0047044984 0.0021804837 4.9710068e-16 -0.00018130449
0.92233641 -0.05 0.005575493 0.0022949588 6.4233862e-17 -0.00019874178
0.91611885 -0.05 0.0064402605 0.0023731051 -1.1210549e-16 -0.0001927031
0.90990044 -0.05 0.0072989518 0.0024909285 9.9736669e-17 -0.00021614177
0.9036812 -0.05 0.0081515644 0.0025836118 -1.9634594e-17 -0.00020255103
0.89746113 -0.05 0.0089981296 0.0027129601 7.5743468e-16 -0.00022354658
0.89124027 -0.05 0.0098387833 0.002782999 -1.1174856e-16 -0.00022291671
0.88501861 -0.05 0.010673539 0.0028760098 -7.6028831e-16 -0.00024381226
0.87879616 -0.05 0.01150234 0.0029936831 1.649806e-16 -0.00024208698
0.87257293 -0.05 0.012325324 0.0031153698 3.8935489e-16 -0.00025727602
0.86634893 -0.05 0.013142558 0.0032167256 1.9895313e-16 -0.00026259464
0.86012419 -0.05 0.013954015 0.0033335243 -2.5891828e-16 -0.00029101808
0.85389871 -0.05 0.01475978 0.0034822312 5.333239e-17 -0.00030230886
0.84767249 -0.05 0.015559917 0.0036441399 5.7753142e-16 -0.00029894727
0.84144557 -0.05 0.01635441 0.0037613591 5.7649617e-16 -0.00029868527
0.83521792 -0.05 0.017143225 0.0039136196 2.3765127e-16 -0.00030883362
0.82898957 -0.05 0.017926536 0.0040320329 -3.6237841e-16 -0.00031537807
0.82276052 -0.05 0.018704302 0.0041901074 3.9911037e-16 -0.00032402717
0.81653079 -0.05 0.019476478 0.0043123868 -2.3206328e-16 -0.00032082457
0.81030037 -0.05 0.020243144 0.004619196 -1.2305219e-16 -0.0003258486
0.80406927 -0.05 0.021004309 0.0050244386 -6.9982782e-16 -0.00031122513
0.79783752 -0.05 0.021760003 0.0058449013 -6.6013363e-16 -0.00030388731
0.79160509 -0.05 0.022510183 0.0084696857 3.5263531e-17 -0.00041827008
0.78537201 -0.05 0.023254934 0.0088884619 -1.9223366e-16 -0.00071647343
0.77913829 -0.05 0.023994223 0.0087330788 1.3702387e-16 -0.00071177457
0.77290391 -0.05 0.024728015 0.0089102389 3.9254551e-16 -0.00073331916
0.7666689 -0.05 0.025456373 0.0077760524 -4.5463629e-17 -0.00059063945
0.76043325 -0.05 0.026179283 0.0083255031 6.9700585e-16 -0.00061635639
0.75419697 -0.05 0.026896734 0.0080418135 2.7031513e-16 -0.00058578817
0.74796007 -0.05 0.027608699 0.0074965461 3.7889421e-16 -0.00051746613
0.74172254 -0.05 0.028315162 0.006652553 -2.1635034e-16 -0.00041349101
0.73548438 -0.05 0.029016108 0.0054333968 2.6938319e-17 -0.00025599084
0.72924561 -0.05 0.029711502 0.0037650033 -3.4796858e-16 -5.6646013e-05
0.72300623 -0.05 0.030401378 0.00162115 -7.1324836e-16 0.00018416275
0.71676623 -0.05 0.031085763 -0.0011149086 -6.8394201e-16 0.0004531307
0.71052562 -0.05 0.031764485 -0.0039123389 -1.6087163e-16 0.00071957071
0.7042844 -0.05 0.032437595 -0.0065337708 -3.7579969e-16 0.0010102968
0.69804257 -0.05 0.033105056 -0.0096438155 3.0550306e-16 0.0013423052
0.69180014 -0.05 0.033766777 -0.013263541 4.350734e-18 0.0017170928
0.6855571 -0.05 0.034422815 -0.017488946 -4.9993062e-16 0.0021468775
0.67931346 -0.05 0.03507307 -0.022281111 -2.6037372e-16 0.0026255276
0.67306922 -0.05 0.035717553 -0.027752011 4.4018414e-16 0.003161208
0.66682438 -0.05 0.036356148 -0.033948468 3.4218546e-17 0.0037544805
0.66057892 -0.05 0.036988754 -0.040938819 -8.5278744e-17 0.0044074397
0.65433287 -0.05 0.037615457 -0.048967792 -3.7060345e-16 0.0051372061
0.64808622 -0.05 0.038236169 -0.058211604 2.7421004e-16 0.0059615699
0.64183896 -0.05 0.038850724 -0.068695202 6.532813e-16 0.0068802272
0.6355911 -0.05 0.03945909 -0.080469164 -3.2003378e-16 0.007899405
0.62934264 -0.05 0.040061269 -0.093635525 6.9993576e-17 0.0090172358
0.62309358 -0.05 0.040657125 -0.10825721 6.2733705e-17 0.010241941
0.6168439 -0.05 0.04124657 -0.1243007 1.2210369e-16 0.011562094
0.61059362 -0.05 0.041829603 -0.1419259 3.5232387e-16 0.012990041
0.60434274 -0.05 0.04240608 -0.16107765 -5.3931497e-16 0.014512262
0.59809125 -0.05 0.042975927 -0.18195621 -1.079106e-16 0.016135846
0.59183914 -0.05 0.043539063 -0.20465946 2.1812161e-16 0.017861659
0.58558643 -0.05 0.044095394 -0.22959956 -2.0566941e-16 0.019795567
0.5793331 -0.05 0.044644806 -0.25836127 -1.2704589e-16 0.02187085
0.57307917 -0.05 0.045187154 -0.28927838 2.3045495e-16 0.0241128
0.56682462 -0.05 0.045722406 -0.32259487 -8.9292781e-17 0.02647494
0.56056946 -0.05 0.046250438 -0.35860292 -3.7374577e-16 0.028984957
0.55431368 -0.05 0.046771089 -0.39700939 2.1553886e-16 0.031589021
0.54805728 -0.05 0.047284289 -0.43810237 -4.5339017e-17 0.034306375
0.54180027 -0.05 0.047789874 -0.48202 3.938995e-16 0.037127176
0.53554263 -0.05 0.048287706 -0.52900593 1.2739989e-16 0.040076046
0.52928437 -0.05 0.048777712 -0.5791108 -2.6919203e-16 0.043125501
0.52302549 -0.05 0.049259721 -0.63236769 -9.0807711e-18 0.046276719
0.51676599 -0.05 0.049733592 -0.68893352 6.7859375e-17 0.049513454
0.51050587 -0.05 0.050199156 -0.7493409 -5.4695184e-17 0.052865184
0.50424512 -0.05 0.050656276 -0.81354955 2.698893e-16 0.056299962
0.49798377 -0.05 0.051104828 -0.88195504 -6.5656709e-17 0.059836967
0.49172178 -0.05 0.051544614 -0.95424698 5.8662768e-17 0.063415106
0.48545916 -0.05 0.051975431 -1.0308839 3.0668327e-17 0.067048254
0.47919594 -0.05 0.052397155 -1.1121301 -2.4441139e-16 0.070742888
0.4729321 -0.05 0.052809647 -1.2002291 -1.8260289e-16 0.074784154
0.46666763 -0.05 0.053212656 -1.302397 2.0060911e-17 0.079630282
0.46040256 -0.05 0.05360597 -1.419934 -3.9962807e-17 0.084765972
0.45413686 -0.05 0.053989423 -1.5416768 -1.3991972e-16 0.08941105
0.44787057 -0.05 0.054362835 -1.6675828 8.5625615e-17 0.093911057
0.44160368 -0.05 0.054725978 -1.7984776 -2.2958909e-16 0.097871494
0.43533618 -0.05 0.055078612 -1.9350018 -3.2495407e-16 0.10130956
0.42906809 -0.05 0.055420526 -2.0776597 -2.6639275e-16 0.10496941
0.42279941 -0.05 0.055751523 -2.2270418 4.1432081e-17 0.10873671
0.41653015 -0.05 0.056071351 -2.3829091 -2.876813e-16 0.11218444
0.41026032 -0.05 0.056379734 -2.5458454 7.3865561e-17 0.1153014
0.40398993 -0.05 0.056676446 -2.7160798 -1.2868491e-17 0.11799514
0.39771898 -0.05 0.056961203 -2.8936066 1.1051604e-16 0.12023231
0.3914475 -0.05 0.057233694 -3.0777016 -8.7965921e-17 0.12194418
0.38517548 -0.05 0.057493706 -3.2693067 3.6979892e-17 0.12308775
0.37890293 -0.05 0.057740995 -3.4689777 8.814278e-17 0.12353168
0.37262989 -0.05 0.057975165 -3.6761555 6.1092698e-18 0.12320731
0.36635637 -0.05 0.058195896 -3.8901676 4.4918817e-17 0.12211438
0.36008238 -0.05 0.058402944 -4.1122777 2.9479995e-16 0.12011121
0.35380794 -0.05 0.058595973 -4.3425918 -1.0386315e-16 0.11705583
0.34753308 -0.05 0.058774627 -4.5809836 -1.6610932e-17 0.11291802
0.34125781 -0.05 0.058938517 -4.826769 1.9969631e-17 0.10757998
0.33498216 -0.05 0.059087313 -5.0800307 -1.4653932e-16 0.10094427
0.32870618 -0.05 0.059220627 -5.3409436 5.238066e-17 0.092757346
0.32242987 -0.05 0.059338031 -5.6100545 -1.6821987e-16 0.083095952
0.31615327 -0.05 0.059439137 -5.8862317 2.9233263e-17 0.071807666
0.30987643 -0.05 0.05952353 -6.17091 -4.7692732e-17 0.059014082