# yPlus  FACE_DATA 448
# x y z  yPlus
0.29669727 -0.05 -0.060365504 22.925612
0.29106032 -0.05 -0.060308644 22.528244
0.28550468 -0.05 -0.060238035 22.188718
0.28002921 -0.05 -0.060153878 21.859271
0.27463282 -0.05 -0.060056431 21.545126
0.26931437 -0.05 -0.059945986 21.244209
0.2640728 -0.05 -0.059822806 20.956978
0.25890704 -0.05 -0.05968713 20.68242
0.25381603 -0.05 -0.059539239 20.422012
0.24879873 -0.05 -0.059379371 20.175069
0.24385413 -0.05 -0.059207703 19.93969
0.23898122 -0.05 -0.059024505 19.714142
0.23417899 -0.05 -0.058830014 19.497728
0.22944646 -0.05 -0.058624485 19.289124
0.22478268 -0.05 -0.058408155 19.089829
0.22018669 -0.05 -0.058181189 18.898361
0.21565756 -0.05 -0.057943845 18.71533
0.21119435 -0.05 -0.057696338 18.540867
0.20679616 -0.05 -0.057438796 18.373581
0.2024621 -0.05 -0.057171476 18.213625
0.19819128 -0.05 -0.056894586 18.061385
0.19398282 -0.05 -0.056608353 17.916463
0.18983586 -0.05 -0.056312972 17.779629
0.18574956 -0.05 -0.056008523 17.648904
0.1817231 -0.05 -0.055695253 17.524997
0.17775564 -0.05 -0.055373346 17.408333
0.17384637 -0.05 -0.055042959 17.297466
0.16999451 -0.05 -0.054704293 17.193202
0.16619925 -0.05 -0.054357503 17.094806
0.16245984 -0.05 -0.054002724 17.002368
0.15877551 -0.05 -0.053640079 16.915081
0.1551455 -0.05 -0.053269788 16.833451
0.15156909 -0.05 -0.052891961 16.757352
0.14804553 -0.05 -0.052506734 16.685844
0.14457412 -0.05 -0.052114251 16.620575
0.14115416 -0.05 -0.051714599 16.559858
0.13778494 -0.05 -0.051307935 16.503815
0.13446578 -0.05 -0.050894367 16.451841
0.13119601 -0.05 -0.050474062 16.404209
0.12797497 -0.05 -0.050047121 16.36071
0.12480201 -0.05 -0.049613569 16.319102
0.12167648 -0.05 -0.049173583 16.280298
0.11859775 -0.05 -0.048727278 16.247114
0.11556521 -0.05 -0.048274666 16.217665
0.11257826 -0.05 -0.047815816 16.192239
0.10963628 -0.05 -0.047350855 16.171037
0.1067387 -0.05 -0.04687981 16.15473
0.10388494 -0.05 -0.046402767 16.141096
0.10107441 -0.05 -0.04591988 16.132588
0.098306581 -0.05 -0.045431085 16.127226
0.095580901 -0.05 -0.044936431 16.125348
0.092896821 -0.05 -0.044436054 16.131072
0.090253838 -0.05 -0.043929867 16.143472
0.08765143 -0.05 -0.043417929 16.159012
0.085089087 -0.05 -0.0429003 16.180194
0.082566315 -0.05 -0.042377002 16.202571
0.080082626 -0.05 -0.041848072 16.228965
0.077637572 -0.05 -0.041313398 16.255762
0.075230697 -0.05 -0.040772968 16.283773
0.072861532 -0.05 -0.04022685 16.312666
0.070529633 -0.05 -0.039675056 16.342781
0.068234597 -0.05 -0.039117469 16.372038
0.065976012 -0.05 -0.038554042 16.400791
0.063753466 -0.05 -0.037984767 16.432679
0.061566586 -0.05 -0.037409546 16.469556
0.059415002 -0.05 -0.036828291 16.51064
0.057298353 -0.05 -0.036240935 16.554971
0.055216297 -0.05 -0.035647369 16.600321
0.053168488 -0.05 -0.035047557 16.645954
0.051154634 -0.05 -0.034441304 16.694489
0.049174448 -0.05 -0.033828456 16.742413
0.047227629 -0.05 -0.033208941 16.795818
0.045313923 -0.05 -0.032582574 16.850114
0.043433098 -0.05 -0.031949165 16.903849
0.041584966 -0.05 -0.031308434 16.958237
0.039769328 -0.05 -0.030660186 17.014513
0.037985992 -0.05 -0.030004267 17.080972
0.036234825 -0.05 -0.029340391 17.156591
0.034515732 -0.05 -0.028668247 17.233509
0.032828641 -0.05 -0.02798752 17.309783
0.031173504 -0.05 -0.027297895 17.381073
0.029550322 -0.05 -0.026599017 17.453281
0.027959154 -0.05 -0.025890457 17.531144
0.026400075 -0.05 -0.025171833 17.601738
0.024873242 -0.05 -0.024442661 17.656751
0.023378872 -0.05 -0.023702429 17.710666
0.021917233 -0.05 -0.022950632 17.782812
0.020488715 -0.05 -0.022186644 17.867549
0.019093734 -0.05 -0.021409899 17.916678
0.017732872 -0.05 -0.020619683 17.888894
0.016406801 -0.05 -0.019815244 17.772288
0.015116284 -0.05 -0.018995847 17.616848
0.013862276 -0.05 -0.01816066 17.493932
0.012645911 -0.05 -0.017308835 17.519192
0.011468521 -0.05 -0.016439495 17.716127
0.010331667 -0.05 -0.01555166 18.087394
0.0092371106 -0.05 -0.014644296 18.623656
0.0081869227 -0.05 -0.013716569 19.356603
0.0071836013 -0.05 -0.012767666 20.261507
0.0062298887 -0.05 -0.011796522 21.099048
0.0053288494 -0.05 -0.01080244 21.712743
0.0044842171 -0.05 -0.0097852869 22.099724
0.0036998655 -0.05 -0.0087447209 22.196102
0.0029798801 -0.05 -0.0076809534 21.969129
0.0023289887 -0.05 -0.0065953437 21.420572
0.0017517531 -0.05 -0.0054894027 20.548002
0.0012524931 -0.05 -0.0043656646 19.257043
0.00083510186 -0.05 -0.0032281984 17.558188
0.00050262358 -0.05 -0.0020814292 15.412989
0.00025676751 -0.05 -0.0009306763 12.707694
9.7567813e-05 -0.05 0.00021800193 9.4884823
2.3478617e-05 -0.05 0.0013585525 6.2951156
0.99686805 -0.05 -0.0062038192 66.141527
0.99064818 -0.05 -0.0070517849 66.799483
0.98442734 -0.05 -0.0078927556 67.155571
0.97820558 -0.05 -0.0087267583 66.787027
0.97198291 -0.05 -0.0095538995 66.55611
0.96575934 -0.05 -0.010374338 66.271083
0.95953489 -0.05 -0.011188056 65.990698
0.95330958 -0.05 -0.011995118 65.70015
0.94708342 -0.05 -0.012795679 65.404714
0.94085644 -0.05 -0.013589822 65.105013
0.93462866 -0.05 -0.014377555 64.800565
0.92840007 -0.05 -0.015158935 64.492422
0.92217069 -0.05 -0.015934041 64.179724
0.91594054 -0.05 -0.016702907 63.862795
0.90970964 -0.05 -0.017465685 63.540898
0.90347801 -0.05 -0.018222371 63.215042
0.89724564 -0.05 -0.018972999 62.882813
0.89101256 -0.05 -0.019717703 62.547445
0.88477878 -0.05 -0.020456498 62.209423
0.87854428 -0.05 -0.021189326 61.869691
0.87230911 -0.05 -0.021916326 61.527608
0.86607327 -0.05 -0.022637565 61.185236
0.85983676 -0.05 -0.023353017 60.84098
0.85359961 -0.05 -0.024062765 60.495896
0.84736181 -0.05 -0.024766874 60.14841
0.84112338 -0.05 -0.025465331 59.799586
0.8348843 -0.05 -0.026158097 59.447506
0.82864463 -0.05 -0.02684535 59.092298
0.82240434 -0.05 -0.027527049 58.732594
0.81616345 -0.05 -0.028203147 58.368307
0.80992196 -0.05 -0.028873724 57.999972
0.80367988 -0.05 -0.029538791 57.629418
0.79743721 -0.05 -0.030198378 57.257675
0.79119396 -0.05 -0.030852441 56.886606
0.78495016 -0.05 -0.031501067 56.516785
0.77870578 -0.05 -0.032144219 56.14914
0.77246084 -0.05 -0.032781866 55.782072
0.76621534 -0.05 -0.033414071 55.416501
0.75996929 -0.05 -0.034040817 55.050788
0.7537227 -0.05 -0.034662096 54.682926
0.74747557 -0.05 -0.03527788 54.309721
0.74122789 -0.05 -0.035888153 53.930937
0.73497968 -0.05 -0.036492899 53.54641
0.72873094 -0.05 -0.037092085 53.158543
0.72248166 -0.05 -0.037685743 52.770094
0.71623186 -0.05 -0.038273903 52.384653
0.70998153 -0.05 -0.038856391 52.002224
0.70373068 -0.05 -0.039433257 51.623223
0.69747931 -0.05 -0.040004467 51.246516
0.69122742 -0.05 -0.040569927 50.869812
0.68497501 -0.05 -0.041129695 50.489933
0.67872209 -0.05 -0.041683673 50.102736
0.67246867 -0.05 -0.042231869 49.706113
0.66621472 -0.05 -0.042774169 49.302096
0.65996026 -0.05 -0.043310472 48.895285
0.6537053 -0.05 -0.043840862 48.492319
0.64744983 -0.05 -0.044365253 48.095178
0.64119384 -0.05 -0.044883479 47.703495
0.63493735 -0.05 -0.045395508 47.31517
0.62868035 -0.05 -0.04590134 46.926695
0.62242285 -0.05 -0.046400841 46.53123
0.61616483 -0.05 -0.046893923 46.122885
0.60990632 -0.05 -0.047380585 45.699259
0.60364729 -0.05 -0.047860681 45.266345
0.59738776 -0.05 -0.048334138 44.834202
0.59112772 -0.05 -0.048800876 44.408763
0.58486719 -0.05 -0.049260801 43.987763
0.57860614 -0.05 -0.049713797 43.571105
0.57234458 -0.05 -0.050159722 43.153612
0.56608253 -0.05 -0.050598541 42.72874
0.55981998 -0.05 -0.051030132 42.284855
0.55355692 -0.05 -0.051454335 41.814558
0.54729335 -0.05 -0.051871077 41.321986
0.54102929 -0.05 -0.052280195 40.825064
0.53476472 -0.05 -0.052681551 40.334001
0.52849965 -0.05 -0.053075073 39.84881
0.5222341 -0.05 -0.05346059 39.369641
0.51596804 -0.05 -0.053837959 38.895218
0.50970149 -0.05 -0.054207013 38.41838
0.50343444 -0.05 -0.054567615 37.926119
0.49716692 -0.05 -0.054919639 37.400085
0.4908989 -0.05 -0.055262891 36.843291
0.48463038 -0.05 -0.055597164 36.288384
0.47836141 -0.05 -0.055922334 35.736465
0.47209195 -0.05 -0.056238266 35.189991
0.46582202 -0.05 -0.056544707 34.646634
0.45955163 -0.05 -0.056841442 34.104104
0.45328078 -0.05 -0.05712831 33.562963
0.44700947 -0.05 -0.057405127 33.021729
0.44073772 -0.05 -0.057671668 32.48109
0.43446554 -0.05 -0.057927692 31.939219
0.42819292 -0.05 -0.058172989 31.397612
0.42191989 -0.05 -0.058407359 30.860225
0.41564645 -0.05 -0.058630554 30.33297
0.40937261 -0.05 -0.058842297 29.817748
0.40309839 -0.05 -0.059042361 29.317191
0.3968238 -0.05 -0.059230462 28.828568
0.39054886 -0.05 -0.059406291 28.356702
0.38427358 -0.05 -0.059569633 27.90517
0.37799798 -0.05 -0.059720248 27.475857
0.37172207 -0.05 -0.059857738 27.062163
0.36544588 -0.05 -0.05998178 26.662228
0.35916945 -0.05 -0.060092136 26.273641
0.35289279 -0.05 -0.060188466 25.89652
0.34661591 -0.05 -0.060270417 25.528414
0.34033886 -0.05 -0.0603376 25.17103
0.33406167 -0.05 -0.060389685 24.822517
0.32778437 -0.05 -0.060426284 24.484129
0.321507 -0.05 -0.060446971 24.152522
0.31522959 -0.05 -0.060451356 23.830473
0.3089522 -0.05 -0.060439026 23.519587
0.30267486 -0.05 -0.060409548 23.261677
0.29762182 -0.05 0.059638837 22.318752
0.29198467 -0.05 0.059668837 22.701782
0.2864286 -0.05 0.059683836 23.036671
0.28095249 -0.05 0.059684053 23.366011
0.27555523 -0.05 0.059669766 23.689415
0.27023571 -0.05 0.059641278 24.006189
0.26499286 -0.05 0.059598874 24.314442
0.25982563 -0.05 0.059542807 24.616176
0.25473294 -0.05 0.059473374 24.911927
0.24971378 -0.05 0.059390831 25.202713
0.24476712 -0.05 0.059295368 25.486574
0.23989195 -0.05 0.059187273 25.763378
0.2350873 -0.05 0.059066797 26.02954
0.23035218 -0.05 0.05893421 26.282198
0.22568561 -0.05 0.058789765 26.521334
0.22108667 -0.05 0.058633639 26.746945
0.21655442 -0.05 0.058466107 26.959675
0.21208792 -0.05 0.058287398 27.166275
0.20768629 -0.05 0.058097651 27.371101
0.20334863 -0.05 0.057897142 27.578182
0.19907404 -0.05 0.05768609 27.782429
0.19486167 -0.05 0.057464733 27.97571
0.19071066 -0.05 0.057233283 28.147621
0.18662016 -0.05 0.056991831 28.292225
0.18258934 -0.05 0.056740637 28.411832
0.17861739 -0.05 0.056479898 28.528534
0.17470351 -0.05 0.056209783 28.662242
0.17084688 -0.05 0.055930506 28.826955
0.16704674 -0.05 0.055642234 29.007508
0.1633023 -0.05 0.055345112 29.203871
0.15961282 -0.05 0.055039278 29.417106
0.15597753 -0.05 0.054724962 29.65733
0.15239572 -0.05 0.054402284 29.929816
0.14886665 -0.05 0.054071392 30.226022
0.14538961 -0.05 0.053732442 30.533379
0.14196389 -0.05 0.053385533 30.841185
0.1385888 -0.05 0.053030829 31.143685
0.13526367 -0.05 0.052668452 31.438731
0.13198781 -0.05 0.052298576 31.722933
0.12876057 -0.05 0.051921315 31.99687
0.12558131 -0.05 0.051536702 32.258301
0.12244937 -0.05 0.051144926 32.508406
0.11936413 -0.05 0.050746111 32.747547
0.11632497 -0.05 0.050340277 32.974667
0.1133313 -0.05 0.049927504 33.189377
0.11038251 -0.05 0.049507927 33.3927
0.10747802 -0.05 0.049081583 33.584637
0.10461725 -0.05 0.048648567 33.763917
0.10179962 -0.05 0.048209041 33.933855
0.09902458 -0.05 0.04776295 34.094206
0.096291603 -0.05 0.047310352 34.243002
0.093600131 -0.05 0.04685139 34.383034
0.090949662 -0.05 0.046385985 34.513727
0.088339676 -0.05 0.045914205 34.63288
0.085769661 -0.05 0.045436118 34.743793
0.083239126 -0.05 0.044951753 34.844747
0.080747582 -0.05 0.044461153 34.937983
0.078294581 -0.05 0.043964216 35.023631
0.075879664 -0.05 0.043460935 35.098213
0.073502366 -0.05 0.042951385 35.161234
0.071162242 -0.05 0.042435586 35.213605
0.068858888 -0.05 0.041913426 35.2585
0.066591889 -0.05 0.041384866 35.290331
0.064360836 -0.05 0.040849902 35.311465
0.062165352 -0.05 0.040308445 35.322243
0.060005069 -0.05 0.039760411 35.321834
0.05787962 -0.05 0.039205737 35.310204
0.055788666 -0.05 0.038644322 35.287665
0.053731858 -0.05 0.038076133 35.252912
0.051708902 -0.05 0.037500981 35.211898
0.049719509 -0.05 0.036918715 35.155024
0.047763375 -0.05 0.03632927 35.089422
0.045840246 -0.05 0.035732463 35.012535
0.043949884 -0.05 0.035128109 34.92593
0.0420921 -0.05 0.03451593 34.828358
0.04026669 -0.05 0.033895734 34.719961
0.038473458 -0.05 0.033267371 34.595891
0.036712271 -0.05 0.032630554 34.463162
0.034983026 -0.05 0.031984977 34.329334
0.033285646 -0.05 0.031330325 34.177602
0.031620081 -0.05 0.030666284 34.012256
0.029986323 -0.05 0.029992499 33.842121
0.028384426 -0.05 0.029308539 33.654979
0.02681446 -0.05 0.028614022 33.458912
0.025276574 -0.05 0.027908463 33.249878
0.023770976 -0.05 0.027191343 33.029415
0.022297926 -0.05 0.026462155 32.796156
0.020857807 -0.05 0.025720268 32.551256
0.019451023 -0.05 0.02496511 32.290499
0.018078147 -0.05 0.024195955 32.019138
0.016739839 -0.05 0.023412044 31.72702
0.01543685 -0.05 0.022612629 31.419959
0.014170123 -0.05 0.021796862 31.090306
0.012940777 -0.05 0.020963879 30.739766
0.011750132 -0.05 0.020112783 30.360857
0.010599734 -0.05 0.019242571 29.950131
0.0094913266 -0.05 0.018352179 29.491312
0.0084269694 -0.05 0.017440744 28.982658
0.0074091466 -0.05 0.016507411 28.416222
0.0064405842 -0.05 0.015551078 27.774426
0.0055243352 -0.05 0.014570996 27.03063
0.0046641311 -0.05 0.013566977 26.159747
0.0038638397 -0.05 0.01253862 25.125581
0.0031275495 -0.05 0.011486073 23.901554
0.0024600086 -0.05 0.010410621 22.453936
0.0018658013 -0.05 0.0093137047 20.73364
0.0013492862 -0.05 0.0081977925 18.685577
0.00091441882 -0.05 0.0070668924 16.299928
0.00056431082 -0.05 0.005925382 13.476341
0.00030075339 -0.05 0.0047785539 10.215569
0.00012387402 -0.05 0.0036324649 7.0962104
3.2220266e-05 -0.05 0.0024931912 2.7413366
0.99687498 -0.05 -0.0053044936 3.6986835
0.9906689 -0.05 -0.0043607941 0.45600966
0.98446177 -0.05 -0.0034240741 0.68869238
0.97825359 -0.05 -0.0024943068 0.41976177
0.9720444 -0.05 -0.0015713862 0.46455934
0.96583421 -0.05 -0.000655154 0.2221583
0.95962304 -0.05 0.00025437251 0.38621886
0.95341091 -0.05 0.0011572569 0.3412556
0.94719783 -0.05 0.0020536535 0.38061864
0.94098382 -0.05 0.0029436469 0.3793637
0.93476891 -0.05 0.0038272419 0.39500065
0.9285531 -0.05 0.0047044984 0.40243717
0.92233641 -0.05 0.005575493 0.41236465
0.91611885 -0.05 0.0064402605 0.41987411
0.90990044 -0.05 0.0072989518 0.42988806
0.9036812 -0.05 0.0081515644 0.43824374
0.89746113 -0.05 0.0089981296 0.44859615
0.89124027 -0.05 0.0098387833 0.45457851
0.88501861 -0.05 0.010673539 0.46178007
0.87879616 -0.05 0.01150234 0.47129701
0.87257293 -0.05 0.012325324 0.48040736
0.86634893 -0.05 0.013142558 0.48858977
0.86012419 -0.05 0.013954015 0.49729145
0.85389871 -0.05 0.01475978 0.50876054
0.84767249 -0.05 0.015559917 0.51993232
0.84144557 -0.05 0.01635441 0.52832481
0.83521792 -0.05 0.017143225 0.538611
0.82898957 -0.05 0.017926536 0.54686763
0.82276052 -0.05 0.018704302 0.5572213
0.81653079 -0.05 0.019476478 0.56549663
0.81030037 -0.05 0.020243144 0.58507412
0.80406927 -0.05 0.021004309 0.61034097
0.79783752 -0.05 0.021760003 0.65777329
0.79160509 -0.05 0.022510183 0.79156349
0.78537201 -0.05 0.023254934 0.81201165
0.77913829 -0.05 0.023994223 0.805071
0.77290391 -0.05 0.024728015 0.81305538
0.7666689 -0.05 0.025456373 0.75954111
0.76043325 -0.05 0.026179283 0.78588633
0.75419697 -0.05 0.026896734 0.77255964
0.74796007 -0.05 0.027608699 0.74566263
0.74172254 -0.05 0.028315162 0.70228436
0.73548438 -0.05 0.029016108 0.63429787
0.72924561 -0.05 0.029711502 0.52750736
0.72300623 -0.05 0.030401378 0.34576221
0.71676623 -0.05 0.031085763 0.29615495
0.71052562 -0.05 0.031764485 0.54242914
0.7042844 -0.05 0.032437595 0.69961012
0.69804257 -0.05 0.033105056 0.84909941
0.69180014 -0.05 0.033766777 0.99524384
0.6855571 -0.05 0.034422815 1.1424673
0.67931346 -0.05 0.03507307 1.2892112
0.67306922 -0.05 0.035717553 1.4385494
0.66682438 -0.05 0.036356148 1.5908815
0.66057892 -0.05 0.036988754 1.7468998
0.65433287 -0.05 0.037615457 1.9103744
0.64808622 -0.05 0.038236169 2.0827293
0.64183896 -0.05 0.038850724 2.2624084
0.6355911 -0.05 0.03945909 2.4485318
0.62934264 -0.05 0.040061269 2.6412181
0.62309358 -0.05 0.040657125 2.839876
0.6168439 -0.05 0.04124657 3.0430539
0.61059362 -0.05 0.041829603 3.2515746
0.60434274 -0.05 0.04240608 3.4641045
0.59809125 -0.05 0.042975927 3.6817279
0.59183914 -0.05 0.043539063 3.9047827
0.58558643 -0.05 0.044095394 4.1358738
0.5793331 -0.05 0.044644806 4.3873724
0.57307917 -0.05 0.045187154 4.6424024
0.56682462 -0.05 0.045722406 4.9024648
0.56056946 -0.05 0.046250438 5.1685782
0.55431368 -0.05 0.046771089 5.4386417
0.54805728 -0.05 0.047284289 5.7131595
0.54180027 -0.05 0.047789874 5.9929018
0.53554263 -0.05 0.048287706 6.2781061
0.52928437 -0.05 0.048777712 6.5689835
0.52302549 -0.05 0.049259721 6.8643685
0.51676599 -0.05 0.049733592 7.1649243
0.51050587 -0.05 0.050199156 7.4722052
0.50424512 -0.05 0.050656276 7.7862007
0.49798377 -0.05 0.051104828 8.1069493
0.49172178 -0.05 0.051544614 8.4328278
0.48545916 -0.05 0.051975431 8.764805
0.47919594 -0.05 0.052397155 9.1038514
0.4729321 -0.05 0.052809647 9.4574235
0.46666763 -0.05 0.053212656 9.8516835
0.46040256 -0.05 0.05360597 10.286162
0.45413686 -0.05 0.053989423 10.718486
0.44787057 -0.05 0.054362835 11.147484
0.44160368 -0.05 0.054725978 11.576761
0.43533618 -0.05 0.055078612 12.00774
0.42906809 -0.05 0.055420526 12.442619
0.42279941 -0.05 0.055751523 12.881954
0.41653015 -0.05 0.056071351 13.325048
0.41026032 -0.05 0.056379734 13.772634
0.40398993 -0.05 0.056676446 14.225827
0.39771898 -0.05 0.056961203 14.683059
0.3914475 -0.05 0.057233694 15.142716
0.38517548 -0.05 0.057493706 15.606255
0.37890293 -0.05 0.057740995 16.075594
0.37262989 -0.05 0.057975165 16.547881
0.36635637 -0.05 0.058195896 17.022066
0.36008238 -0.05 0.058402944 17.500268
0.35380794 -0.05 0.058595973 17.983427
0.34753308 -0.05 0.058774627 18.469678
0.34125781 -0.05 0.058938517 18.958266
0.33498216 -0.05 0.059087313 19.448364
0.32870618 -0.05 0.059220627 19.941148
0.32242987 -0.05 0.059338031 20.436278
0.31615327 -0.05 0.059439137 20.932423
0.30987643 -0.05 0.05952353 21.431397
0.30359938 -0.05 0.059590774 21.892984
