# Force coefficients
# dragDir       : (1.00000000e+00 0.00000000e+00 0.00000000e+00)
# sideDir       : (0.00000000e+00 1.00000000e+00 0.00000000e+00)
# liftDir       : (0.00000000e+00 0.00000000e+00 1.00000000e+00)
# rollAxis      : (1.00000000e+00 0.00000000e+00 0.00000000e+00)
# pitchAxis     : (0.00000000e+00 1.00000000e+00 0.00000000e+00)
# yawAxis       : (0.00000000e+00 0.00000000e+00 1.00000000e+00)
# magUInf       : 2.61300000e+02
# lRef          : 1.00000000e+00
# Aref          : 1.00000000e-01
# CofR          : (2.50000000e-01 0.00000000e+00 0.00000000e+00)
#
# Time          	Cd              	Cs              	Cl              	CmRoll          	CmPitch         	CmYaw           	Cd(f)           	Cd(r)           	Cs(f)           	Cs(r)           	Cl(f)           	Cl(r)           
2.39808e-06     	3.38492297e-02	-8.56317323e-22	-3.07834220e-05	1.53917110e-06	7.90649248e-06	1.69246149e-03	1.69261540e-02	1.69230757e-02	1.69246149e-03	-1.69246149e-03	-7.48521850e-06	-2.32982035e-05
5.27302e-06     	3.90547871e-02	-1.18059768e-21	-7.42872440e-05	3.71436220e-06	2.62874333e-05	1.95273935e-03	1.95311079e-02	1.95236792e-02	1.95273935e-03	-1.95273935e-03	-1.08561888e-05	-6.34310553e-05
8.72693e-06     	3.67798963e-02	2.19655041e-22	-1.71931727e-05	8.59658633e-07	1.17017686e-05	1.83899481e-03	1.83908078e-02	1.83890885e-02	1.83899481e-03	-1.83899481e-03	3.10518226e-06	-2.02983549e-05
1.28745e-05     	3.51931894e-02	5.21727045e-22	-1.69070718e-05	8.45353592e-07	8.94097109e-06	1.75965947e-03	1.75974401e-02	1.75957494e-02	1.75965947e-03	-1.75965947e-03	4.87435170e-07	-1.73945070e-05
1.786e-05       	3.46638787e-02	-6.61427914e-22	-3.61608465e-05	1.80804232e-06	2.13265252e-05	1.73319393e-03	1.73337474e-02	1.73301313e-02	1.73319393e-03	-1.73319393e-03	3.24610199e-06	-3.94069484e-05
2.38487e-05     	3.39205839e-02	-5.14525697e-22	-2.47646651e-06	1.23823325e-07	1.69820325e-05	1.69602920e-03	1.69604158e-02	1.69601681e-02	1.69602920e-03	-1.69602920e-03	1.57437993e-05	-1.82202658e-05
3.10262e-05     	3.29733306e-02	-6.38057488e-22	5.48907455e-05	-2.74453727e-06	-5.68489998e-06	1.64866653e-03	1.64839208e-02	1.64894098e-02	1.64866653e-03	-1.64866653e-03	2.17604728e-05	3.31302727e-05
3.96012e-05     	3.19281276e-02	-9.15219391e-22	3.55258349e-05	-1.77629174e-06	-9.01148211e-06	1.59640638e-03	1.59622875e-02	1.59658401e-02	1.59640638e-03	-1.59640638e-03	8.75143532e-06	2.67743995e-05
4.99281e-05     	3.08099273e-02	-2.46875136e-21	2.42436839e-05	-1.21218420e-06	-2.41778902e-05	1.54049636e-03	1.54037514e-02	1.54061758e-02	1.54049636e-03	-1.54049636e-03	-1.20560482e-05	3.62997321e-05
6.22667e-05     	2.95897406e-02	3.12955343e-22	3.31044084e-05	-1.65522042e-06	-1.68777769e-05	1.47948703e-03	1.47932151e-02	1.47965255e-02	1.47948703e-03	-1.47948703e-03	-3.25572651e-07	3.34299811e-05
7.71513e-05     	2.82727735e-02	-4.43766521e-22	1.02922242e-04	-5.14611212e-06	-3.71751078e-05	1.41363868e-03	1.41312406e-02	1.41415329e-02	1.41363868e-03	-1.41363868e-03	1.42860133e-05	8.86362290e-05
9.48984e-05     	2.69422172e-02	2.89491176e-22	7.25669534e-05	-3.62834767e-06	-2.94599195e-05	1.34711086e-03	1.34674802e-02	1.34747369e-02	1.34711086e-03	-1.34711086e-03	6.82355723e-06	6.57433961e-05
0.000115947     	2.56299425e-02	1.14032586e-22	7.16743723e-05	-3.58371861e-06	-2.09254337e-05	1.28149712e-03	1.28113875e-02	1.28185550e-02	1.28149712e-03	-1.28149712e-03	1.49117524e-05	5.67626198e-05
0.000141206     	2.42711943e-02	7.30413626e-22	6.08779791e-05	-3.04389895e-06	-1.43525654e-05	1.21355972e-03	1.21325533e-02	1.21386411e-02	1.21355972e-03	-1.21355972e-03	1.60864242e-05	4.47915549e-05
0.000171877     	2.28727350e-02	2.35651770e-21	1.01687052e-04	-5.08435258e-06	-4.55738054e-05	1.14363675e-03	1.14312831e-02	1.14414518e-02	1.14363675e-03	-1.14363675e-03	5.26972037e-06	9.64173311e-05
0.000207883     	2.14490882e-02	1.23916335e-21	1.12317868e-04	-5.61589338e-06	-5.20961258e-05	1.07245441e-03	1.07189282e-02	1.07301600e-02	1.07245441e-03	-1.07245441e-03	4.06280799e-06	1.08255060e-04
0.000251889     	1.99844555e-02	8.50317316e-22	1.63459607e-04	-8.17298035e-06	-6.21675859e-05	9.99222773e-04	9.98405475e-03	1.00004007e-02	9.99222773e-04	-9.99222773e-04	1.95622176e-05	1.43897389e-04
0.000305326     	1.84984830e-02	1.88653531e-21	1.98545975e-04	-9.92729876e-06	-6.76380786e-05	9.24924148e-04	9.23931418e-03	9.25916878e-03	9.24924148e-04	-9.24924148e-04	3.16349090e-05	1.66911066e-04
0.000368478     	1.70384173e-02	6.53245026e-22	2.62997131e-04	-1.31498566e-05	-8.79539127e-05	8.51920863e-04	8.50605877e-03	8.53235849e-03	8.51920863e-04	-8.51920863e-04	4.35446529e-05	2.19452478e-04
0.000438647     	1.56470234e-02	-1.66655222e-21	3.27451852e-04	-1.63725926e-05	-1.04226503e-04	7.82351172e-04	7.80713913e-03	7.83988431e-03	7.82351172e-04	-7.82351172e-04	5.94994235e-05	2.67952429e-04
0.00051884      	1.42737761e-02	2.33597986e-21	3.81982251e-04	-1.90991126e-05	-1.26117997e-04	7.13688807e-04	7.11778895e-03	7.15598718e-03	7.13688807e-04	-7.13688807e-04	6.48731287e-05	3.17109123e-04
0.000599034     	1.30581262e-02	-1.37016472e-21	4.54773815e-04	-2.27386907e-05	-1.47888014e-04	6.52906312e-04	6.50632443e-03	6.55180181e-03	6.52906312e-04	-6.52906312e-04	7.94988928e-05	3.75274922e-04
0.000679227     	1.19709016e-02	8.47216524e-22	5.27289079e-04	-2.63644539e-05	-1.71643368e-04	5.98545082e-04	5.95908636e-03	6.01181527e-03	5.98545082e-04	-5.98545082e-04	9.20011715e-05	4.35287907e-04
0.00075942      	1.09830937e-02	-2.00597302e-21	6.05358337e-04	-3.02679168e-05	-1.94664634e-04	5.49154684e-04	5.46127892e-03	5.52181475e-03	5.49154684e-04	-5.49154684e-04	1.08014534e-04	4.97343803e-04
0.000839613     	1.00754929e-02	3.09069197e-22	6.81141160e-04	-3.40570580e-05	-2.18494916e-04	5.03774645e-04	5.00368939e-03	5.07180351e-03	5.03774645e-04	-5.03774645e-04	1.22075664e-04	5.59065497e-04
0.000919807     	9.23193083e-03	-5.96622118e-22	7.59646526e-04	-3.79823263e-05	-2.42873837e-04	4.61596541e-04	4.57798309e-03	4.65394774e-03	4.61596541e-04	-4.61596541e-04	1.36949426e-04	6.22697100e-04
0.001           	8.44883769e-03	7.99238716e-22	8.35774628e-04	-4.17887314e-05	-2.66554868e-04	4.22441885e-04	4.18263011e-03	4.26620758e-03	4.22441885e-04	-4.22441885e-04	1.51332445e-04	6.84442182e-04
0.00108333      	7.69531511e-03	2.36737455e-21	9.15767515e-04	-4.57883758e-05	-2.91169432e-04	3.84765756e-04	3.80186918e-03	3.89344593e-03	3.84765756e-04	-3.84765756e-04	1.66714326e-04	7.49053190e-04
0.00116667      	6.99880696e-03	-2.66236350e-21	9.92710462e-04	-4.96355231e-05	-3.15006896e-04	3.49940348e-04	3.44976796e-03	3.54903900e-03	3.49940348e-04	-3.49940348e-04	1.81348335e-04	8.11362127e-04
0.00125         	6.35404235e-03	2.68746646e-21	1.06747232e-03	-5.33736160e-05	-3.38077920e-04	3.17702117e-04	3.12364756e-03	3.23039479e-03	3.17702117e-04	-3.17702117e-04	1.95658240e-04	8.71814080e-04
0.00133333      	5.75431458e-03	-1.72370630e-21	1.14056490e-03	-5.70282450e-05	-3.60432482e-04	2.87715729e-04	2.82012905e-03	2.93418554e-03	2.87715729e-04	-2.87715729e-04	2.09849968e-04	9.30714932e-04
0.00141667      	5.19479379e-03	-7.58646727e-22	1.21155857e-03	-6.05779286e-05	-3.81894554e-04	2.59739689e-04	2.53681896e-03	2.65797482e-03	2.59739689e-04	-2.59739689e-04	2.23884732e-04	9.87673839e-04
0.0015          	4.67251280e-03	1.33090688e-22	1.28054550e-03	-6.40272749e-05	-4.02352384e-04	2.33625640e-04	2.27222913e-03	2.40028368e-03	2.33625640e-04	-2.33625640e-04	2.37920365e-04	1.04262513e-03
0.00158333      	4.18389300e-03	-1.88426847e-21	1.34711317e-03	-6.73556586e-05	-4.21758338e-04	2.09194650e-04	2.02459084e-03	2.15930216e-03	2.09194650e-04	-2.09194650e-04	2.51798248e-04	1.09531492e-03
0.00166667      	3.72721831e-03	1.55126741e-21	1.41114845e-03	-7.05574227e-05	-4.39555272e-04	1.86360916e-04	1.79305173e-03	1.93416658e-03	1.86360916e-04	-1.86360916e-04	2.66018955e-04	1.14512950e-03
0.00175         	3.30099243e-03	-2.82726096e-22	1.47224411e-03	-7.36122054e-05	-4.56381749e-04	1.65049621e-04	1.57688401e-03	1.72410842e-03	1.65049621e-04	-1.65049621e-04	2.79740305e-04	1.19250380e-03
0.00183333      	2.90432857e-03	8.03948427e-22	1.53042036e-03	-7.65210179e-05	-4.71527659e-04	1.45216428e-04	1.37564326e-03	1.52868530e-03	1.45216428e-04	-1.45216428e-04	2.93682519e-04	1.23673784e-03
0.00191667      	2.53709480e-03	-4.30441411e-22	1.58552945e-03	-7.92764723e-05	-4.85149881e-04	1.26854740e-04	1.18927093e-03	1.34782387e-03	1.26854740e-04	-1.26854740e-04	3.07614842e-04	1.27791460e-03
0.002           	2.19920829e-03	-4.50237420e-23	1.63736007e-03	-8.18680034e-05	-4.96971519e-04	1.09960415e-04	1.01773614e-03	1.18147215e-03	1.09960415e-04	-1.09960415e-04	3.21708514e-04	1.31565155e-03
0.00207877      	1.90677374e-03	3.84338241e-22	1.68310494e-03	-8.41552468e-05	-5.06573197e-04	9.53386872e-05	8.69231625e-04	1.03754212e-03	9.53386872e-05	-9.53386872e-05	3.34979271e-04	1.34812566e-03
0.00215754      	1.64089320e-03	-4.04057852e-22	1.72667864e-03	-8.63339322e-05	-5.14934712e-04	8.20446598e-05	7.34112666e-04	9.06780530e-04	8.20446598e-05	-8.20446598e-05	3.48404610e-04	1.37827403e-03
0.00223631      	1.40218981e-03	-4.12326928e-22	1.76659065e-03	-8.83295324e-05	-5.21311148e-04	7.01094903e-05	6.12765371e-04	7.89424435e-04	7.01094903e-05	-7.01094903e-05	3.61984176e-04	1.40460647e-03
0.00231508      	1.18981243e-03	9.33956862e-22	1.80337604e-03	-9.01688019e-05	-5.25811125e-04	5.94906216e-05	5.04737414e-04	6.85075018e-04	5.94906216e-05	-5.94906216e-05	3.75876894e-04	1.42749914e-03
0.00239385      	1.00325794e-03	-1.44638977e-21	1.83775398e-03	-9.18876989e-05	-5.28754806e-04	5.01628972e-05	4.09741273e-04	5.93516671e-04	5.01628972e-05	-5.01628972e-05	3.90122184e-04	1.44763180e-03
0.00247262      	8.41256392e-04	-1.16496115e-22	1.86860310e-03	-9.34301550e-05	-5.30740699e-04	4.20628196e-05	3.27198041e-04	5.14058351e-04	4.20628196e-05	-4.20628196e-05	4.03560851e-04	1.46504225e-03
0.00255139      	7.02085138e-04	-3.36667477e-22	1.89814954e-03	-9.49074768e-05	-5.31631947e-04	3.51042569e-05	2.56135092e-04	4.45950046e-04	3.51042569e-05	-3.51042569e-05	4.17442821e-04	1.48070672e-03
0.00263016      	5.84026403e-04	1.89166317e-21	1.92540384e-03	-9.62701918e-05	-5.32050803e-04	2.92013202e-05	1.95743010e-04	3.88283393e-04	2.92013202e-05	-2.92013202e-05	4.30651115e-04	1.49475272e-03
0.00270894      	4.84986793e-04	4.39657759e-22	1.95100849e-03	-9.75504243e-05	-5.31879560e-04	2.42493396e-05	1.44942972e-04	3.40043821e-04	2.42493396e-05	-2.42493396e-05	4.43624683e-04	1.50738380e-03
0.00278771      	4.03123907e-04	2.62723072e-21	1.97452263e-03	-9.87261317e-05	-5.31197191e-04	2.01561953e-05	1.02835822e-04	3.00288085e-04	2.01561953e-05	-2.01561953e-05	4.56064126e-04	1.51845851e-03
0.00286648      	3.36506554e-04	9.05049584e-22	1.99755946e-03	-9.98779731e-05	-5.30482041e-04	1.68253277e-05	6.83753040e-05	2.68131250e-04	1.68253277e-05	-1.68253277e-05	4.68297689e-04	1.52926177e-03
0.00294525      	2.83612802e-04	4.91107109e-21	2.01910389e-03	-1.00955195e-04	-5.29485613e-04	1.41806401e-05	4.08512062e-05	2.42761595e-04	1.41806401e-05	-1.41806401e-05	4.80066332e-04	1.53903756e-03
0.00302402      	2.43128311e-04	-6.71276115e-22	2.03961430e-03	-1.01980715e-04	-5.28502766e-04	1.21564155e-05	1.95834404e-05	2.23544871e-04	1.21564155e-05	-1.21564155e-05	4.91304385e-04	1.54830992e-03
0.00310279      	2.14021098e-04	3.32478627e-21	2.05849520e-03	-1.02924760e-04	-5.26948728e-04	1.07010549e-05	4.08578928e-06	2.09935309e-04	1.07010549e-05	-1.07010549e-05	5.02298872e-04	1.55619633e-03
0.00318156      	1.95429735e-04	7.61554878e-22	2.07607927e-03	-1.03803963e-04	-5.25201384e-04	9.77148676e-06	-6.08909577e-06	2.01518831e-04	9.77148676e-06	-9.77148676e-06	5.12838250e-04	1.56324102e-03
0.00326033      	1.86315646e-04	6.68692983e-22	2.09269919e-03	-1.04634960e-04	-5.23046085e-04	9.31578230e-06	-1.14771366e-05	1.97792783e-04	9.31578230e-06	-9.31578230e-06	5.23303511e-04	1.56939568e-03
0.0033391       	1.86475539e-04	-3.33788077e-22	2.10790155e-03	-1.05395078e-04	-5.20447106e-04	9.32377695e-06	-1.21573080e-05	1.98632847e-04	9.32377695e-06	-9.32377695e-06	5.33503669e-04	1.57439788e-03
0.00341787      	1.94710802e-04	2.06462860e-21	2.12198577e-03	-1.06099288e-04	-5.17486647e-04	9.73554011e-06	-8.74388728e-06	2.03454690e-04	9.73554011e-06	-9.73554011e-06	5.43506238e-04	1.57847953e-03
0.00349664      	2.10351597e-04	6.37983656e-24	2.13460630e-03	-1.06730315e-04	-5.13937617e-04	1.05175798e-05	-1.55451669e-06	2.11906114e-04	1.05175798e-05	-1.05175798e-05	5.53365534e-04	1.58124077e-03
0.00357541      	2.32289246e-04	-2.13562295e-21	2.14646456e-03	-1.07323228e-04	-5.10307061e-04	1.16144623e-05	8.82139493e-06	2.23467851e-04	1.16144623e-05	-1.16144623e-05	5.62925220e-04	1.58353934e-03
0.00365418      	2.59578232e-04	-1.75148301e-21	2.15716286e-03	-1.07858143e-04	-5.06309616e-04	1.29789116e-05	2.19309733e-05	2.37647259e-04	1.29789116e-05	-1.29789116e-05	5.72271812e-04	1.58489104e-03
0.00373295      	2.91364399e-04	-2.99400648e-22	2.17113151e-03	-1.08556576e-04	-5.04097980e-04	1.45682199e-05	3.71256236e-05	2.54238775e-04	1.45682199e-05	-1.45682199e-05	5.81467778e-04	1.58966374e-03
0.00381172      	3.25624327e-04	6.75222346e-22	2.18090939e-03	-1.09045470e-04	-4.99996546e-04	1.62812164e-05	5.37666939e-05	2.71857633e-04	1.62812164e-05	-1.62812164e-05	5.90458150e-04	1.59045124e-03
0.00389049      	3.61726884e-04	-1.26022456e-21	2.18961508e-03	-1.09480754e-04	-4.95254964e-04	1.80863442e-05	7.13826882e-05	2.90344196e-04	1.80863442e-05	-1.80863442e-05	5.99552576e-04	1.59006250e-03
0.00396926      	3.98573392e-04	1.39388003e-21	2.19702974e-03	-1.09851487e-04	-4.90398307e-04	1.99286696e-05	8.94352094e-05	3.09138183e-04	1.99286696e-05	-1.99286696e-05	6.08116561e-04	1.58891317e-03
0.00404803      	4.35157601e-04	-7.73375749e-22	2.20393337e-03	-1.10196668e-04	-4.85408039e-04	2.17578801e-05	1.07382132e-04	3.27775469e-04	2.17578801e-05	-2.17578801e-05	6.16558644e-04	1.58737472e-03
0.00412681      	4.70807366e-04	-4.22787540e-22	2.20998071e-03	-1.10499035e-04	-4.80171835e-04	2.35403683e-05	1.24904647e-04	3.45902718e-04	2.35403683e-05	-2.35403683e-05	6.24818519e-04	1.58516219e-03
0.00420558      	5.04897774e-04	4.41095558e-21	2.21521237e-03	-1.10760618e-04	-4.74830868e-04	2.52448887e-05	1.41688269e-04	3.63209506e-04	2.52448887e-05	-2.52448887e-05	6.32775316e-04	1.58243705e-03
0.00428435      	5.37228347e-04	5.49187636e-23	2.21985379e-03	-1.10992689e-04	-4.69387460e-04	2.68614173e-05	1.57621484e-04	3.79606863e-04	2.68614173e-05	-2.68614173e-05	6.40539435e-04	1.57931435e-03
0.00436312      	5.67379504e-04	-1.90382514e-21	2.22365523e-03	-1.11182762e-04	-4.63953460e-04	2.83689752e-05	1.72506991e-04	3.94872514e-04	2.83689752e-05	-2.83689752e-05	6.47874156e-04	1.57578108e-03
0.00444189      	5.95578166e-04	-8.20247510e-22	2.22697318e-03	-1.11348659e-04	-4.57974885e-04	2.97789083e-05	1.86440424e-04	4.09137742e-04	2.97789083e-05	-2.97789083e-05	6.55511703e-04	1.57146147e-03
0.00452066      	6.21451966e-04	4.16180718e-21	2.22940626e-03	-1.11470313e-04	-4.52237542e-04	3.10725983e-05	1.99255670e-04	4.22196296e-04	3.10725983e-05	-3.10725983e-05	6.62465588e-04	1.56694067e-03
0.00459943      	6.45497942e-04	3.45710369e-21	2.23127239e-03	-1.11563620e-04	-4.46587549e-04	3.22748971e-05	2.11185351e-04	4.34312590e-04	3.22748971e-05	-3.22748971e-05	6.69048647e-04	1.56222374e-03
0.0046782       	6.67697260e-04	-1.56316946e-21	2.23249578e-03	-1.11624789e-04	-4.40791390e-04	3.33848630e-05	2.22223841e-04	4.45473419e-04	3.33848630e-05	-3.33848630e-05	6.75456500e-04	1.55703928e-03
0.00475697      	6.88112104e-04	2.75092689e-21	2.23305945e-03	-1.11652973e-04	-4.34991467e-04	3.44056052e-05	2.32403079e-04	4.55709025e-04	3.44056052e-05	-3.44056052e-05	6.81538260e-04	1.55152119e-03
0.0048337       	7.06466713e-04	-1.17016571e-21	2.23194930e-03	-1.11597465e-04	-4.28658461e-04	3.53233357e-05	2.41635892e-04	4.64830822e-04	3.53233357e-05	-3.53233357e-05	6.87316188e-04	1.54463311e-03
0.00491042      	7.23724024e-04	1.36671289e-21	2.23165982e-03	-1.11582991e-04	-4.22991124e-04	3.61862012e-05	2.50279021e-04	4.73445003e-04	3.61862012e-05	-3.61862012e-05	6.92838785e-04	1.53882103e-03
0.00498715      	7.39971270e-04	1.06936310e-21	2.23120796e-03	-1.11560398e-04	-4.17447873e-04	3.69985635e-05	2.58425237e-04	4.81546033e-04	3.69985635e-05	-3.69985635e-05	6.98156105e-04	1.53305185e-03
0.00506452      	7.55349316e-04	-9.57933949e-23	2.23052922e-03	-1.11526461e-04	-4.11951369e-04	3.77674658e-05	2.66148197e-04	4.89201119e-04	3.77674658e-05	-3.77674658e-05	7.03313239e-04	1.52721598e-03
0.00514188      	7.69788949e-04	2.22940246e-21	2.22952222e-03	-1.11476111e-04	-4.06429635e-04	3.84894474e-05	2.73418364e-04	4.96370585e-04	3.84894474e-05	-3.84894474e-05	7.08331473e-04	1.52119074e-03
0.00521925      	7.83584646e-04	-1.33686343e-21	2.22834045e-03	-1.11417022e-04	-4.00920018e-04	3.91792323e-05	2.80375301e-04	5.03209345e-04	3.91792323e-05	-3.91792323e-05	7.13250206e-04	1.51509024e-03
0.00529662      	7.96595339e-04	1.15777761e-21	2.22677727e-03	-1.11338863e-04	-3.95345723e-04	3.98297669e-05	2.86958806e-04	5.09636533e-04	3.98297669e-05	-3.98297669e-05	7.18042910e-04	1.50873436e-03
0.00537399      	8.09069572e-04	-1.45848599e-21	2.22516957e-03	-1.11258478e-04	-3.89827204e-04	4.04534786e-05	2.93276308e-04	5.15793265e-04	4.04534786e-05	-4.04534786e-05	7.22757581e-04	1.50241199e-03
0.00545136      	8.20885002e-04	-3.01145440e-22	2.22338446e-03	-1.11169223e-04	-3.84318191e-04	4.10442501e-05	2.99273278e-04	5.21611724e-04	4.10442501e-05	-4.10442501e-05	7.27374039e-04	1.49601042e-03
0.00552873      	8.32207560e-04	1.74511481e-21	2.22165614e-03	-1.11082807e-04	-3.78880681e-04	4.16103780e-05	3.05020973e-04	5.27186587e-04	4.16103780e-05	-4.16103780e-05	7.31947389e-04	1.48970875e-03
0.0056061       	8.43021047e-04	-2.17514084e-21	2.21985931e-03	-1.10992965e-04	-3.73524727e-04	4.21510524e-05	3.10517558e-04	5.32503489e-04	4.21510524e-05	-4.21510524e-05	7.36404928e-04	1.48345438e-03
0.00568347      	8.53284564e-04	-4.05189845e-21	2.21790062e-03	-1.10895031e-04	-3.68010665e-04	4.26642282e-05	3.15747251e-04	5.37537313e-04	4.26642282e-05	-4.26642282e-05	7.40939643e-04	1.47696097e-03
0.00576084      	8.63039149e-04	-7.42077660e-22	2.21608759e-03	-1.10804380e-04	-3.62631611e-04	4.31519574e-05	3.20715195e-04	5.42323954e-04	4.31519574e-05	-4.31519574e-05	7.45412185e-04	1.47067541e-03
0.00583821      	8.72366108e-04	-1.79044203e-21	2.21423643e-03	-1.10711822e-04	-3.57228354e-04	4.36183054e-05	3.25471233e-04	5.46894876e-04	4.36183054e-05	-4.36183054e-05	7.49889862e-04	1.46434657e-03
0.00591558      	8.81145925e-04	5.04502015e-22	2.21246130e-03	-1.10623065e-04	-3.51839899e-04	4.40572963e-05	3.29949898e-04	5.51196027e-04	4.40572963e-05	-4.40572963e-05	7.54390749e-04	1.45807055e-03
0.00599295      	8.89513130e-04	6.22251309e-22	2.21074718e-03	-1.10537359e-04	-3.46448947e-04	4.44756565e-05	3.34219206e-04	5.55293924e-04	4.44756565e-05	-4.44756565e-05	7.58924641e-04	1.45182254e-03
0.00607032      	8.97403859e-04	-1.54730617e-21	2.20918132e-03	-1.10459066e-04	-3.41119005e-04	4.48701929e-05	3.38242864e-04	5.59160995e-04	4.48701929e-05	-4.48701929e-05	7.63471654e-04	1.44570966e-03
0.00614769      	9.04869402e-04	-6.38171711e-22	2.20762022e-03	-1.10381011e-04	-3.35819474e-04	4.52434701e-05	3.42053690e-04	5.62815712e-04	4.52434701e-05	-4.52434701e-05	7.67990636e-04	1.43962958e-03
0.00622506      	9.11832549e-04	2.35794159e-22	2.20629123e-03	-1.10314562e-04	-3.30531552e-04	4.55916274e-05	3.45601713e-04	5.66230836e-04	4.55916274e-05	-4.55916274e-05	7.72614064e-04	1.43367717e-03
0.00630242      	9.18403151e-04	-5.52214871e-23	2.20505391e-03	-1.10252696e-04	-3.25302813e-04	4.59201576e-05	3.48948880e-04	5.69454271e-04	4.59201576e-05	-4.59201576e-05	7.77224144e-04	1.42782977e-03
0.00637979      	9.24500778e-04	-2.97435130e-21	2.20392918e-03	-1.10196459e-04	-3.20065785e-04	4.62250389e-05	3.52053930e-04	5.72446848e-04	4.62250389e-05	-4.62250389e-05	7.81898804e-04	1.42203037e-03
0.00645716      	9.30172838e-04	1.04615747e-21	2.20332665e-03	-1.10166332e-04	-3.15001575e-04	4.65086419e-05	3.54920087e-04	5.75252751e-04	4.65086419e-05	-4.65086419e-05	7.86661749e-04	1.41666490e-03
0.00653453      	9.35421664e-04	-1.08032972e-22	2.20243489e-03	-1.10121745e-04	-3.09831688e-04	4.67710832e-05	3.57589087e-04	5.77832577e-04	4.67710832e-05	-4.67710832e-05	7.91385758e-04	1.41104913e-03
0.0066119       	9.40240872e-04	6.77671210e-22	2.20142260e-03	-1.10071130e-04	-3.04551472e-04	4.70120436e-05	3.60049306e-04	5.80191566e-04	4.70120436e-05	-4.70120436e-05	7.96159827e-04	1.40526277e-03
0.00668927      	9.44720168e-04	-1.16504601e-21	2.20132911e-03	-1.10066455e-04	-2.99619627e-04	4.72360084e-05	3.62293629e-04	5.82426540e-04	4.72360084e-05	-4.72360084e-05	8.01044926e-04	1.40028418e-03
0.00676664      	9.48838054e-04	-3.48978207e-22	2.20062229e-03	-1.10031115e-04	-2.94426039e-04	4.74419027e-05	3.64387912e-04	5.84450142e-04	4.74419027e-05	-4.74419027e-05	8.05885108e-04	1.39473719e-03
0.00684401      	9.52634542e-04	1.95320252e-22	2.20055429e-03	-1.10027715e-04	-2.89444591e-04	4.76317271e-05	3.66289556e-04	5.86344986e-04	4.76317271e-05	-4.76317271e-05	8.10832556e-04	1.38972174e-03
0.00692138      	9.56132608e-04	1.97808991e-21	2.20056566e-03	-1.10028283e-04	-2.84539978e-04	4.78066304e-05	3.68038021e-04	5.88094587e-04	4.78066304e-05	-4.78066304e-05	8.15742854e-04	1.38482281e-03
0.00699875      	9.59336443e-04	1.01038275e-21	2.20081738e-03	-1.10040869e-04	-2.79678408e-04	4.79668221e-05	3.69627352e-04	5.89709090e-04	4.79668221e-05	-4.79668221e-05	8.20730284e-04	1.38008710e-03
0.00707612      	9.62276358e-04	1.67103763e-21	2.20125471e-03	-1.10062735e-04	-2.74877384e-04	4.81138179e-05	3.71075444e-04	5.91200915e-04	4.81138179e-05	-4.81138179e-05	8.25749969e-04	1.37550474e-03
0.00715349      	9.64996990e-04	3.86931533e-21	2.20184133e-03	-1.10092067e-04	-2.70140021e-04	4.82498495e-05	3.72406428e-04	5.92590562e-04	4.82498495e-05	-4.82498495e-05	8.30780646e-04	1.37106069e-03
0.00723086      	9.67485031e-04	-1.82742577e-21	2.20255332e-03	-1.10127666e-04	-2.65465222e-04	4.83742516e-05	3.73614850e-04	5.93870182e-04	4.83742516e-05	-4.83742516e-05	8.35811439e-04	1.36674188e-03
0.00730823      	9.69762797e-04	1.43545988e-22	2.20352336e-03	-1.10176168e-04	-2.60809837e-04	4.84881398e-05	3.74705230e-04	5.95057567e-04	4.84881398e-05	-4.84881398e-05	8.40951845e-04	1.36257152e-03
0.0073856       	9.71838855e-04	5.75586213e-22	2.20461043e-03	-1.10230521e-04	-2.56248318e-04	4.85919428e-05	3.75688906e-04	5.96149949e-04	4.85919428e-05	-4.85919428e-05	8.46056896e-04	1.35855353e-03
0.00746297      	9.73753950e-04	1.78149130e-21	2.20584319e-03	-1.10292159e-04	-2.51673738e-04	4.86876975e-05	3.76584815e-04	5.97169134e-04	4.86876975e-05	-4.86876975e-05	8.51247856e-04	1.35459533e-03
0.00754033      	9.75492049e-04	8.00160681e-23	2.20719046e-03	-1.10359523e-04	-2.47200492e-04	4.87746025e-05	3.77386502e-04	5.98105547e-04	4.87746025e-05	-4.87746025e-05	8.56394736e-04	1.35079572e-03
0.0076177       	9.77096407e-04	1.41306437e-21	2.20886761e-03	-1.10443380e-04	-2.42769179e-04	4.88548204e-05	3.78104823e-04	5.98991584e-04	4.88548204e-05	-4.88548204e-05	8.61664624e-04	1.34720298e-03
0.00769507      	9.78547641e-04	-3.14834166e-22	2.21059192e-03	-1.10529596e-04	-2.38445088e-04	4.89273820e-05	3.78744224e-04	5.99803417e-04	4.89273820e-05	-4.89273820e-05	8.66850875e-04	1.34374105e-03
0.00777244      	9.79899643e-04	-1.11273643e-21	2.21254953e-03	-1.10627476e-04	-2.34161232e-04	4.89949821e-05	3.79322345e-04	6.00577298e-04	4.89949821e-05	-4.89949821e-05	8.72113531e-04	1.34043600e-03
0.00784981      	9.81112959e-04	7.94926900e-22	2.21489937e-03	-1.10744968e-04	-2.30019616e-04	4.90556479e-05	3.79811511e-04	6.01301448e-04	4.90556479e-05	-4.90556479e-05	8.77430068e-04	1.33746930e-03
0.00792718      	9.82261599e-04	-4.06444942e-22	2.21700798e-03	-1.10850399e-04	-2.25848270e-04	4.91130800e-05	3.80280400e-04	6.01981199e-04	4.91130800e-05	-4.91130800e-05	8.82655721e-04	1.33435226e-03
0.00800455      	9.83243576e-04	-8.72540975e-22	2.21967596e-03	-1.10983798e-04	-2.21851986e-04	4.91621788e-05	3.80637990e-04	6.02605586e-04	4.91621788e-05	-4.91621788e-05	8.87985993e-04	1.33168997e-03
0.00808192      	9.84169834e-04	1.35714582e-21	2.22231110e-03	-1.11115555e-04	-2.17883034e-04	4.92084917e-05	3.80969362e-04	6.03200472e-04	4.92084917e-05	-4.92084917e-05	8.93272514e-04	1.32903858e-03
0.00815929      	9.84929312e-04	-1.12272744e-21	2.22523733e-03	-1.11261867e-04	-2.14015471e-04	4.92464656e-05	3.81202789e-04	6.03726522e-04	4.92464656e-05	-4.92464656e-05	8.98603195e-04	1.32663414e-03
0.00823666      	9.85655485e-04	-2.41080737e-22	2.22859241e-03	-1.11429621e-04	-2.10303537e-04	4.92827743e-05	3.81398122e-04	6.04257363e-04	4.92827743e-05	-4.92827743e-05	9.03992669e-04	1.32459974e-03
0.00831403      	9.86231133e-04	-9.01103067e-22	2.23175466e-03	-1.11587733e-04	-2.06581714e-04	4.93115567e-05	3.81527834e-04	6.04703300e-04	4.93115567e-05	-4.93115567e-05	9.09295615e-04	1.32245904e-03
0.0083914       	9.86754068e-04	-4.84213913e-22	2.23504639e-03	-1.11752320e-04	-2.02905715e-04	4.93377034e-05	3.81624714e-04	6.05129354e-04	4.93377034e-05	-4.93377034e-05	9.14617482e-04	1.32042891e-03
0.00846877      	9.87146174e-04	1.12471948e-21	2.23855114e-03	-1.11927557e-04	-1.99260094e-04	4.93573087e-05	3.81645530e-04	6.05500644e-04	4.93573087e-05	-4.93573087e-05	9.20015479e-04	1.31853567e-03
0.00854614      	9.87551533e-04	-9.95258232e-22	2.24204275e-03	-1.12102138e-04	-1.95626788e-04	4.93775766e-05	3.81673629e-04	6.05877904e-04	4.93775766e-05	-4.93775766e-05	9.25394588e-04	1.31664816e-03
0.00862351      	9.87820013e-04	1.84190804e-21	2.24593028e-03	-1.12296514e-04	-1.92148758e-04	4.93910006e-05	3.81613493e-04	6.06206520e-04	4.93910006e-05	-4.93910006e-05	9.30816380e-04	1.31511390e-03
0.00870087      	9.88116460e-04	-2.51077355e-21	2.24976563e-03	-1.12488281e-04	-1.88690912e-04	4.94058230e-05	3.81569948e-04	6.06546511e-04	4.94058230e-05	-4.94058230e-05	9.36191903e-04	1.31357373e-03
0.00877824      	9.88288865e-04	-2.60850607e-21	2.25371278e-03	-1.12685639e-04	-1.85299058e-04	4.94144432e-05	3.81458793e-04	6.06830072e-04	4.94144432e-05	-4.94144432e-05	9.41557334e-04	1.31215545e-03
0.00885561      	9.88462718e-04	1.10832650e-21	2.25778548e-03	-1.12889274e-04	-1.81895531e-04	4.94231359e-05	3.81342085e-04	6.07120633e-04	4.94231359e-05	-4.94231359e-05	9.46997211e-04	1.31078827e-03
0.00893298      	9.88495823e-04	2.33397532e-22	2.26202617e-03	-1.13101308e-04	-1.78559110e-04	4.94247912e-05	3.81146603e-04	6.07349220e-04	4.94247912e-05	-4.94247912e-05	9.52453974e-04	1.30957219e-03
0.00901035      	9.88520401e-04	7.74479490e-22	2.26626170e-03	-1.13313085e-04	-1.75175160e-04	4.94260200e-05	3.80947115e-04	6.07573286e-04	4.94260200e-05	-4.94260200e-05	9.57955692e-04	1.30830601e-03
0.00908772      	9.88400640e-04	1.26198846e-22	2.27069215e-03	-1.13534607e-04	-1.71921026e-04	4.94200320e-05	3.80665713e-04	6.07734928e-04	4.94200320e-05	-4.94200320e-05	9.63425047e-04	1.30726710e-03
0.00916509      	9.88268231e-04	1.48350279e-21	2.27509830e-03	-1.13754915e-04	-1.68682558e-04	4.94134115e-05	3.80379200e-04	6.07889030e-04	4.94134115e-05	-4.94134115e-05	9.68866591e-04	1.30623171e-03
0.00924246      	9.87966149e-04	5.92864748e-22	2.27979600e-03	-1.13989800e-04	-1.65580903e-04	4.93983075e-05	3.79993275e-04	6.07972875e-04	4.93983075e-05	-4.93983075e-05	9.74317096e-04	1.30547890e-03
0.00931983      	9.87686677e-04	-2.72733383e-21	2.28430506e-03	-1.14215253e-04	-1.62442243e-04	4.93843338e-05	3.79628085e-04	6.08058592e-04	4.93843338e-05	-4.93843338e-05	9.79710289e-04	1.30459478e-03
0.0093972       	9.87262473e-04	1.46290526e-21	2.28896079e-03	-1.14448040e-04	-1.59292142e-04	4.93631237e-05	3.79183197e-04	6.08079276e-04	4.93631237e-05	-4.93631237e-05	9.85188256e-04	1.30377254e-03
0.00947457      	9.86898989e-04	1.02235418e-21	2.29381505e-03	-1.14690753e-04	-1.56202615e-04	4.93449494e-05	3.78758742e-04	6.08140247e-04	4.93449494e-05	-4.93449494e-05	9.90704910e-04	1.30311014e-03
0.00955194      	9.86400378e-04	3.64946077e-21	2.29861367e-03	-1.14930684e-04	-1.53110190e-04	4.93200189e-05	3.78269505e-04	6.08130872e-04	4.93200189e-05	-4.93200189e-05	9.96196646e-04	1.30241703e-03
0.00962931      	9.85984242e-04	-2.66404046e-21	2.30339146e-03	-1.15169573e-04	-1.49988857e-04	4.92992121e-05	3.77822548e-04	6.08161694e-04	4.92992121e-05	-4.92992121e-05	1.00170687e-03	1.30168458e-03
0.00970668      	9.85444635e-04	-5.68983588e-22	2.30855626e-03	-1.15427813e-04	-1.46980085e-04	4.92722318e-05	3.77294505e-04	6.08150131e-04	4.92722318e-05	-4.92722318e-05	1.00729804e-03	1.30125821e-03
0.00978405      	9.84991576e-04	2.63202769e-22	2.31349067e-03	-1.15674534e-04	-1.43965983e-04	4.92495788e-05	3.76821254e-04	6.08170322e-04	4.92495788e-05	-4.92495788e-05	1.01277935e-03	1.30071132e-03
0.00986141      	9.84395315e-04	-5.45712576e-22	2.31857244e-03	-1.15928622e-04	-1.40932751e-04	4.92197657e-05	3.76269036e-04	6.08126279e-04	4.92197657e-05	-4.92197657e-05	1.01835347e-03	1.30021897e-03
0.00993878      	9.83862048e-04	2.92639694e-21	2.32343977e-03	-1.16171988e-04	-1.37848689e-04	4.91931024e-05	3.75759036e-04	6.08103012e-04	4.91931024e-05	-4.91931024e-05	1.02387119e-03	1.29956857e-03
0.0100162       	9.83162726e-04	-8.10915315e-22	2.32861947e-03	-1.16430974e-04	-1.34928042e-04	4.91581363e-05	3.75150389e-04	6.08012337e-04	4.91581363e-05	-4.91581363e-05	1.02938169e-03	1.29923778e-03
0.0100935       	9.82514813e-04	-6.65583964e-22	2.33349601e-03	-1.16674800e-04	-1.31829043e-04	4.91257406e-05	3.74582606e-04	6.07932207e-04	4.91257406e-05	-4.91257406e-05	1.03491896e-03	1.29857705e-03
0.0101709       	9.81671161e-04	-8.01364131e-22	2.33864110e-03	-1.16932055e-04	-1.28813666e-04	4.90835581e-05	3.73903525e-04	6.07767636e-04	4.90835581e-05	-4.90835581e-05	1.04050689e-03	1.29813422e-03
0.0102483       	9.80874097e-04	4.32234605e-22	2.34365720e-03	-1.17182860e-04	-1.25805432e-04	4.90437048e-05	3.73254188e-04	6.07619909e-04	4.90437048e-05	-4.90437048e-05	1.04602317e-03	1.29763403e-03