# p  FACE_DATA 448
# x y z  p
0.29504365 -0.05 -0.06160924 99597.785
0.28941032 -0.05 -0.061399588 99593.929
0.28385863 -0.05 -0.061178396 99591.061
0.27838746 -0.05 -0.060945834 99588.239
0.27299569 -0.05 -0.060702133 99585.574
0.26768219 -0.05 -0.06044755 99583.085
0.26244588 -0.05 -0.060182321 99580.687
0.2572857 -0.05 -0.059906656 99578.507
0.25220057 -0.05 -0.059620806 99576.322
0.24718946 -0.05 -0.059324982 99574.323
0.24225132 -0.05 -0.059019333 99572.44
0.23738515 -0.05 -0.058704103 99570.748
0.23258996 -0.05 -0.058379499 99569.204
0.22786476 -0.05 -0.058045751 99567.78
0.22320855 -0.05 -0.05770307 99566.478
0.2186204 -0.05 -0.057351594 99565.371
0.21409937 -0.05 -0.056991556 99564.249
0.20964452 -0.05 -0.056623147 99563.348
0.20525493 -0.05 -0.056246468 99562.649
0.2009297 -0.05 -0.055861754 99562.07
0.19666796 -0.05 -0.055469189 99561.676
0.1924688 -0.05 -0.055068973 99561.32
0.18833137 -0.05 -0.05466128 99561.161
0.18425484 -0.05 -0.054246167 99561.256
0.18023834 -0.05 -0.053823858 99561.366
0.17628107 -0.05 -0.053394516 99561.771
0.1723822 -0.05 -0.052958273 99562.249
0.16854093 -0.05 -0.05251531 99562.898
0.16475647 -0.05 -0.052065763 99563.641
0.16102805 -0.05 -0.051609742 99564.682
0.15735491 -0.05 -0.051147352 99565.864
0.15373626 -0.05 -0.05067879 99567.124
0.15017141 -0.05 -0.050204149 99568.653
0.1466596 -0.05 -0.049723542 99570.281
0.14320011 -0.05 -0.049237096 99572.106
0.13979223 -0.05 -0.048744881 99574.111
0.13643526 -0.05 -0.048247029 99576.297
0.13312854 -0.05 -0.047743634 99578.722
0.12987137 -0.05 -0.047234842 99581.241
0.12666308 -0.05 -0.046720739 99584.042
0.12350304 -0.05 -0.04620133 99587.124
0.12039059 -0.05 -0.045676775 99590.256
0.11732509 -0.05 -0.045147173 99593.599
0.11430593 -0.05 -0.044612518 99597.17
0.11133252 -0.05 -0.044072863 99600.909
0.10840422 -0.05 -0.043528318 99604.789
0.10552048 -0.05 -0.042978895 99609.113
0.1026807 -0.05 -0.042424666 99613.509
0.099884301 -0.05 -0.041865765 99618.073
0.097130736 -0.05 -0.041302116 99623.132
0.094419468 -0.05 -0.040733753 99628.325
0.091749938 -0.05 -0.040160797 99633.719
0.089121648 -0.05 -0.039583147 99639.666
0.086534075 -0.05 -0.039000849 99645.748
0.083986706 -0.05 -0.038413947 99652.302
0.081479047 -0.05 -0.037822451 99658.942
0.07901061 -0.05 -0.037226385 99665.967
0.07658095 -0.05 -0.036625625 99673.455
0.07418961 -0.05 -0.036020146 99681.384
0.071836121 -0.05 -0.035410002 99689.589
0.069520038 -0.05 -0.034795195 99698.172
0.06724096 -0.05 -0.034175596 99707.301
0.064998478 -0.05 -0.033551147 99716.795
0.062792183 -0.05 -0.03292183 99726.724
0.0606217 -0.05 -0.032287536 99737.183
0.058486664 -0.05 -0.031648168 99748.166
0.056386715 -0.05 -0.031003646 99759.705
0.054321516 -0.05 -0.030353857 99771.835
0.052290719 -0.05 -0.029698751 99784.36
0.050294041 -0.05 -0.029038127 99797.861
0.048331196 -0.05 -0.028371822 99811.865
0.046401887 -0.05 -0.027699759 99826.617
0.044505865 -0.05 -0.027021743 99842.029
0.042642902 -0.05 -0.026337579 99858.327
0.040812819 -0.05 -0.025646983 99875.572
0.039015423 -0.05 -0.024949753 99893.912
0.037250523 -0.05 -0.024245731 99913.332
0.035517996 -0.05 -0.023534625 99933.538
0.033817756 -0.05 -0.022816125 99954.987
0.032149739 -0.05 -0.022089914 99977.836
0.030513907 -0.05 -0.021355672 100001.94
0.028910266 -0.05 -0.020613049 100027.62
0.027338891 -0.05 -0.019861613 100054.91
0.025799867 -0.05 -0.019100988 100083.87
0.024293363 -0.05 -0.018330694 100114.79
0.022819608 -0.05 -0.017550223 100147.62
0.021378887 -0.05 -0.016759078 100182.58
0.019971605 -0.05 -0.015956644 100219.99
0.018598193 -0.05 -0.015142369 100259.92
0.017259254 -0.05 -0.014315551 100302.99
0.015955479 -0.05 -0.013475459 100348.96
0.014687649 -0.05 -0.01262138 100398.53
0.013456741 -0.05 -0.011752504 100451.87
0.012263916 -0.05 -0.010868017 100509.26
0.011110526 -0.05 -0.0099670786 100570.11
0.0099981588 -0.05 -0.0090487511 100635.6
0.0089286019 -0.05 -0.0081120487 100705.66
0.0079039497 -0.05 -0.0071561932 100780.38
0.0069267211 -0.05 -0.0061804384 100859.49
0.0059996858 -0.05 -0.0051837977 100942.98
0.0051259263 -0.05 -0.0041656545 101029.86
0.0043091786 -0.05 -0.0031259782 101119.35
0.0035533239 -0.05 -0.0020645314 101209.83
0.002862441 -0.05 -0.00098163679 101298.8
0.0022412188 -0.05 0.00012121914 101382.4
0.0016941763 -0.05 0.001242402 101456
0.0012255633 -0.05 0.0023792616 101517.26
0.0008391612 -0.05 0.0035276249 101561.42
0.00053789299 -0.05 0.0046829858 101582.12
0.00032332316 -0.05 0.0058399806 101578.11
0.0001953216 -0.05 0.0069925524 101547.88
0.00015217894 -0.05 0.0081346924 101489.85
0.99642537 -0.05 -0.026448461 100175.22
0.9901848 -0.05 -0.0271275 100203.86
0.98394346 -0.05 -0.027799521 100182
0.97770137 -0.05 -0.028464551 100178.77
0.97145856 -0.05 -0.029122697 100167.91
0.96521504 -0.05 -0.029774118 100159.38
0.95897082 -0.05 -0.030418798 100149.88
0.95272592 -0.05 -0.031056801 100140.66
0.94648035 -0.05 -0.031688281 100131.39
0.94023414 -0.05 -0.032313326 100122.21
0.93398728 -0.05 -0.032931939 100113.14
0.9277398 -0.05 -0.03354418 100104.25
0.92149169 -0.05 -0.034150129 100095.47
0.915243 -0.05 -0.034749819 100086.86
0.90899371 -0.05 -0.035343402 100078.38
0.90274385 -0.05 -0.035930877 100070.15
0.89649342 -0.05 -0.036512274 100062.03
0.89024244 -0.05 -0.037087731 100054.1
0.88399092 -0.05 -0.037657262 100046.33
0.87773886 -0.05 -0.03822081 100038.76
0.87148627 -0.05 -0.038778513 100031.32
0.86523317 -0.05 -0.039330439 100024.06
0.85897956 -0.05 -0.039876561 100016.95
0.85272545 -0.05 -0.040416966 100010.01
0.84647085 -0.05 -0.040951715 100003.21
0.84021579 -0.05 -0.041480796 99996.569
0.83396023 -0.05 -0.042004172 99990.063
0.82770421 -0.05 -0.04252202 99983.657
0.82144774 -0.05 -0.0430343 99977.416
0.81519081 -0.05 -0.043540965 99971.262
0.80893344 -0.05 -0.044042095 99965.245
0.80267562 -0.05 -0.0445377 99959.319
0.79641736 -0.05 -0.045027812 99953.509
0.79015869 -0.05 -0.045512385 99947.8
0.78389959 -0.05 -0.045991508 99942.162
0.77764008 -0.05 -0.046465144 99936.645
0.77138014 -0.05 -0.046933263 99931.191
0.7651198 -0.05 -0.047395925 99925.82
0.75885905 -0.05 -0.047853117 99920.519
0.75259791 -0.05 -0.048304828 99915.293
0.74633638 -0.05 -0.048751031 99910.138
0.74007446 -0.05 -0.04919171 99905.044
0.73381215 -0.05 -0.049626851 99900.009
0.72754945 -0.05 -0.050056419 99895.045
0.72128638 -0.05 -0.050480446 99890.114
0.71502294 -0.05 -0.050898965 99885.222
0.70875912 -0.05 -0.051311797 99880.426
0.70249492 -0.05 -0.051718996 99875.595
0.69623037 -0.05 -0.052120527 99870.88
0.68996545 -0.05 -0.052516296 99866.155
0.68370017 -0.05 -0.052906362 99861.492
0.67743453 -0.05 -0.053290625 99856.855
0.67116853 -0.05 -0.053669095 99852.222
0.66490219 -0.05 -0.054041657 99847.66
0.65863549 -0.05 -0.054408209 99843.12
0.65236844 -0.05 -0.054768838 99838.557
0.64610106 -0.05 -0.055123457 99834.034
0.63983332 -0.05 -0.055471898 99829.538
0.63356525 -0.05 -0.05581413 99825.059
0.62729684 -0.05 -0.056150155 99820.563
0.6210281 -0.05 -0.056479837 99816.125
0.61475902 -0.05 -0.056803089 99811.678
0.6084896 -0.05 -0.057119908 99807.273
0.60221986 -0.05 -0.057430151 99802.908
0.5959498 -0.05 -0.057733745 99798.526
0.58967941 -0.05 -0.058030607 99794.164
0.5834087 -0.05 -0.058320646 99789.775
0.57713767 -0.05 -0.058603744 99785.422
0.57086633 -0.05 -0.058879759 99781.072
0.56459469 -0.05 -0.059148659 99776.705
0.55832274 -0.05 -0.059410319 99772.35
0.55205047 -0.05 -0.059664579 99767.981
0.54577791 -0.05 -0.059911368 99763.589
0.53950506 -0.05 -0.060150523 99759.247
0.53323192 -0.05 -0.060381905 99754.887
0.52695848 -0.05 -0.060605442 99750.522
0.52068478 -0.05 -0.060820964 99746.172
0.51441079 -0.05 -0.061028327 99741.81
0.50813654 -0.05 -0.061227366 99737.474
0.50186202 -0.05 -0.061417941 99733.09
0.49558725 -0.05 -0.061599928 99728.721
0.48931223 -0.05 -0.061773133 99724.356
0.48303697 -0.05 -0.06193735 99720.028
0.47676147 -0.05 -0.062092455 99715.66
0.47048575 -0.05 -0.062238311 99711.297
0.46420983 -0.05 -0.062374667 99706.936
0.4579337 -0.05 -0.062501308 99702.591
0.45165738 -0.05 -0.062618073 99698.232
0.44538087 -0.05 -0.06272478 99693.882
0.43910419 -0.05 -0.062821202 99689.544
0.43282738 -0.05 -0.062907098 99685.241
0.42655042 -0.05 -0.062982259 99680.913
0.42027334 -0.05 -0.063046488 99676.58
0.41399615 -0.05 -0.063099533 99672.28
0.40771888 -0.05 -0.06314112 99668.018
0.40144154 -0.05 -0.063171022 99663.719
0.39516416 -0.05 -0.063188955 99659.501
0.38888675 -0.05 -0.063194611 99655.294
0.38260935 -0.05 -0.063187777 99651.065
0.37633197 -0.05 -0.063168211 99646.841
0.37005465 -0.05 -0.063135515 99642.749
0.36377741 -0.05 -0.063089371 99638.664
0.35750029 -0.05 -0.063029536 99634.608
0.35122332 -0.05 -0.062955677 99630.53
0.34494653 -0.05 -0.062867437 99626.524
0.33866996 -0.05 -0.062764431 99622.607
0.33239367 -0.05 -0.062646328 99618.693
0.32611768 -0.05 -0.062512741 99614.864
0.31984206 -0.05 -0.062363246 99611.122
0.31356684 -0.05 -0.062197455 99607.593
0.30729208 -0.05 -0.062014956 99603.945
0.30101786 -0.05 -0.061815314 99599.254
0.29922108 -0.05 0.058325934 99338.562
0.29358681 -0.05 0.058508741 99331.561
0.28803318 -0.05 0.058674354 99324.179
0.28255909 -0.05 0.058823024 99317.018
0.27716343 -0.05 0.058955056 99309.904
0.2718451 -0.05 0.059070786 99302.921
0.26660303 -0.05 0.059170527 99295.989
0.26143617 -0.05 0.05925456 99289.209
0.25634347 -0.05 0.059323211 99282.41
0.25132392 -0.05 0.059376763 99275.764
0.24637648 -0.05 0.059415435 99269.174
0.24150019 -0.05 0.059439541 99262.683
0.23669403 -0.05 0.059449359 99256.291
0.23195705 -0.05 0.059445186 99249.943
0.22728828 -0.05 0.0594273 99243.66
0.2226868 -0.05 0.059395905 99237.544
0.21815167 -0.05 0.059351299 99231.393
0.21368198 -0.05 0.059293738 99225.384
0.20927682 -0.05 0.059223386 99219.491
0.20493531 -0.05 0.05914054 99213.666
0.20065658 -0.05 0.059045446 99207.974
0.19643976 -0.05 0.058938364 99202.253
0.192284 -0.05 0.05881953 99196.638
0.18818845 -0.05 0.058689056 99191.181
0.18415231 -0.05 0.058547226 99185.702
0.18017475 -0.05 0.058394259 99180.421
0.17625498 -0.05 0.058230345 99175.163
0.1723922 -0.05 0.05805572 99170.019
0.16858563 -0.05 0.057870573 99164.886
0.16483452 -0.05 0.057675069 99159.918
0.1611381 -0.05 0.057469366 99155.027
0.15749563 -0.05 0.057253714 99150.169
0.15390639 -0.05 0.057028255 99145.455
0.15036964 -0.05 0.056793154 99140.724
0.14688469 -0.05 0.056548588 99136.122
0.14345083 -0.05 0.056294675 99131.619
0.14006736 -0.05 0.056031597 99127.222
0.13673363 -0.05 0.055759494 99122.96
0.13344895 -0.05 0.055478559 99118.67
0.13021267 -0.05 0.055188925 99114.568
0.12702415 -0.05 0.054890641 99110.631
0.12388275 -0.05 0.054583912 99106.636
0.12078782 -0.05 0.054268881 99102.716
0.11773878 -0.05 0.053945586 99098.912
0.11473502 -0.05 0.05361412 99095.229
0.11177594 -0.05 0.053274636 99091.6
0.10886096 -0.05 0.052927187 99088.235
0.1059895 -0.05 0.052571884 99084.828
0.10316099 -0.05 0.052208904 99081.511
0.10037488 -0.05 0.051838205 99078.485
0.097630635 -0.05 0.051459861 99075.413
0.09492771 -0.05 0.051074031 99072.385
0.092265599 -0.05 0.05068065 99069.685
0.089643781 -0.05 0.050279797 99066.954
0.087061752 -0.05 0.049871556 99064.471
0.084519016 -0.05 0.04945597 99061.923
0.082015088 -0.05 0.049033093 99059.62
0.079549516 -0.05 0.048602838 99057.597
0.077121843 -0.05 0.048165209 99055.762
0.074731606 -0.05 0.047720292 99053.895
0.072378359 -0.05 0.047268121 99052.145
0.070061695 -0.05 0.046808594 99050.682
0.0677812 -0.05 0.046341685 99049.417
0.065536466 -0.05 0.045867401 99048.444
0.063327111 -0.05 0.04538566 99047.807
0.061152764 -0.05 0.04489639 99047.372
0.05901306 -0.05 0.044399539 99047.069
0.056907656 -0.05 0.043895014 99046.931
0.0548362 -0.05 0.043382792 99046.936
0.052798396 -0.05 0.042862692 99047.693
0.050793949 -0.05 0.042334571 99048.796
0.048822555 -0.05 0.041798372 99050.395
0.046883953 -0.05 0.041253919 99052.214
0.044977903 -0.05 0.040701032 99054.355
0.043104206 -0.05 0.040139442 99057.071
0.041262654 -0.05 0.039568959 99060.483
0.039453047 -0.05 0.038989439 99064.654
0.037675243 -0.05 0.038400601 99069.75
0.035929132 -0.05 0.037802139 99075.441
0.03421463 -0.05 0.037193743 99081.543
0.032531675 -0.05 0.036575098 99088.243
0.030880251 -0.05 0.03594585 99096.596
0.029260402 -0.05 0.035305567 99106.393
0.027672186 -0.05 0.034653866 99117.71
0.026115737 -0.05 0.033990256 99130.36
0.024591252 -0.05 0.033314217 99144.324
0.023098976 -0.05 0.032625229 99160.928
0.021639274 -0.05 0.031922655 99179.869
0.020212535 -0.05 0.031205911 99201.252
0.018819314 -0.05 0.030474256 99225.2
0.017460247 -0.05 0.029726913 99250.902
0.016136065 -0.05 0.028963114 99279.563
0.014847688 -0.05 0.028181987 99312.685
0.013596213 -0.05 0.027382638 99351.353
0.012382933 -0.05 0.026564132 99396.17
0.011209367 -0.05 0.025725424 99448.721
0.010077229 -0.05 0.024865409 99509.806
0.008988555 -0.05 0.023983162 99580.497
0.0079458046 -0.05 0.023077765 99660.615
0.0069516726 -0.05 0.022148039 99750.398
0.0060091913 -0.05 0.021193156 99848.973
0.0051220853 -0.05 0.020212827 99959.752
0.0042942102 -0.05 0.019206543 100084.47
0.0035296571 -0.05 0.018174342 100219.85
0.0028332069 -0.05 0.017117382 100368.59
0.0022094816 -0.05 0.016036978 100527.22
0.001662905 -0.05 0.014935478 100691.39
0.0011975397 -0.05 0.013816782 100856.26
0.00081661503 -0.05 0.012685182 101016.34
0.00052206498 -0.05 0.01154592 101166.52
0.00031418117 -0.05 0.010405048 101298.49
0.00019167642 -0.05 0.0092686771 101406.49
0.99645668 -0.05 -0.025549654 100308.32
0.99027848 -0.05 -0.024438061 100266.87
0.98409902 -0.05 -0.023333415 100229.96
0.97791833 -0.05 -0.022235691 100204.87
0.97173643 -0.05 -0.021144784 100182.62
0.96555337 -0.05 -0.020060536 100163.03
0.95936914 -0.05 -0.018982964 100145.33
0.95318376 -0.05 -0.017912006 100128.99
0.94699727 -0.05 -0.016847509 100113.88
0.94080967 -0.05 -0.015789387 100099.62
0.934621 -0.05 -0.014737636 100086.37
0.92843126 -0.05 -0.013692196 100073.68
0.92224046 -0.05 -0.012652992 100061.74
0.91604862 -0.05 -0.01161999 100050.28
0.90985578 -0.05 -0.01059304 100039.35
0.90366194 -0.05 -0.0095721423 100028.88
0.89746712 -0.05 -0.0085572678 100018.82
0.89127132 -0.05 -0.0075482811 100009.02
0.88507457 -0.05 -0.0065451685 99999.629
0.87887687 -0.05 -0.0055479866 99990.575
0.87267825 -0.05 -0.0045565989 99981.67
0.8664787 -0.05 -0.0035709379 99973.03
0.86027824 -0.05 -0.0025910322 99964.686
0.85407689 -0.05 -0.0016167959 99956.471
0.84787466 -0.05 -0.0006481668 99948.418
0.84167156 -0.05 0.00031484121 99940.565
0.83546758 -0.05 0.0012721919 99932.974
0.82926274 -0.05 0.0022240597 99925.308
0.82305708 -0.05 0.0031704044 99917.966
0.81685057 -0.05 0.0041111798 99910.665
0.81064322 -0.05 0.0050464647 99903.609
0.80443505 -0.05 0.0059762685 99896.547
0.79822606 -0.05 0.0069006227 99889.625
0.79201627 -0.05 0.0078194821 99882.789
0.78580568 -0.05 0.0087329328 99875.974
0.77959428 -0.05 0.0096409398 99869.297
0.77338209 -0.05 0.010543471 99862.66
0.76716911 -0.05 0.011440587 99856.058
0.76095535 -0.05 0.012332274 99849.515
0.75474082 -0.05 0.013218522 99842.996
0.74852551 -0.05 0.014099302 99836.557
0.74230941 -0.05 0.014974599 99830.177
0.73609255 -0.05 0.015844399 99823.861
0.72987493 -0.05 0.016708664 99817.608
0.72365654 -0.05 0.01756743 99811.331
0.71743739 -0.05 0.018420725 99805.041
0.71121747 -0.05 0.019268375 99798.942
0.70499679 -0.05 0.02011043 99792.636
0.69877535 -0.05 0.020946858 99786.502
0.69255316 -0.05 0.021777563 99780.277
0.6863302 -0.05 0.022602602 99774.099
0.68010648 -0.05 0.023421878 99767.902
0.67388201 -0.05 0.024235399 99761.63
0.66765677 -0.05 0.025043051 99755.48
0.66143076 -0.05 0.025844734 99749.349
0.65520399 -0.05 0.026640531 99743.132
0.64897646 -0.05 0.027430356 99736.979
0.64274817 -0.05 0.028214043 99730.866
0.63651909 -0.05 0.028991559 99724.726
0.63028925 -0.05 0.029762907 99718.477
0.62405864 -0.05 0.03052795 99712.288
0.61782724 -0.05 0.031286602 99706.029
0.61159506 -0.05 0.032038861 99699.732
0.6053621 -0.05 0.032784582 99693.443
0.59912835 -0.05 0.033523692 99687.097
0.59289382 -0.05 0.034256109 99680.765
0.58665849 -0.05 0.034981742 99674.344
0.58042236 -0.05 0.035700474 99667.915
0.57418542 -0.05 0.036412161 99661.443
0.56794768 -0.05 0.037116771 99654.912
0.56170913 -0.05 0.037814181 99648.389
0.55546976 -0.05 0.03850423 99641.843
0.54922958 -0.05 0.039186846 99635.209
0.54298856 -0.05 0.039861867 99628.579
0.53674672 -0.05 0.040529154 99621.846
0.53050405 -0.05 0.041188637 99615.106
0.52426053 -0.05 0.041840141 99608.359
0.51801619 -0.05 0.042483527 99601.57
0.51177098 -0.05 0.043118627 99594.734
0.50552493 -0.05 0.043745302 99587.794
0.49927803 -0.05 0.044363429 99580.836
0.49303026 -0.05 0.04497281 99573.834
0.48678163 -0.05 0.045573242 99566.844
0.48053214 -0.05 0.046164601 99559.761
0.47428178 -0.05 0.046746749 99552.636
0.46803055 -0.05 0.047319435 99545.51
0.46177843 -0.05 0.047882444 99538.364
0.45552545 -0.05 0.048435614 99531.164
0.44927159 -0.05 0.048978762 99523.915
0.44301683 -0.05 0.049511661 99516.638
0.4367612 -0.05 0.050034072 99509.351
0.43050468 -0.05 0.050545782 99502.011
0.42424728 -0.05 0.051046595 99494.601
0.417989 -0.05 0.05153626 99487.148
0.41172982 -0.05 0.0520145 99479.666
0.40546979 -0.05 0.052481088 99472.097
0.39920886 -0.05 0.052935739 99464.541
0.39294706 -0.05 0.053378145 99456.972
0.3866844 -0.05 0.053808089 99449.318
0.38042087 -0.05 0.054225331 99441.572
0.37415648 -0.05 0.054629472 99433.89
0.36789125 -0.05 0.055020191 99426.149
0.36162518 -0.05 0.055397245 99418.376
0.35535828 -0.05 0.055760297 99410.544
0.34909056 -0.05 0.056108991 99402.692
0.34282204 -0.05 0.056442938 99394.834
0.33655273 -0.05 0.056761808 99386.888
0.33028267 -0.05 0.057065208 99378.959
0.32401184 -0.05 0.057352715 99371.019
0.3177403 -0.05 0.057623937 99362.895
0.31146806 -0.05 0.057878458 99354.374
0.30519514 -0.05 0.058115842 99346.785
