# wallShearStress  FACE_DATA 448
# x y z  wallShearStress_x wallShearStress_y wallShearStress_z
0.29504365 -0.05 -0.06160924 -6.9186141 1.4292029e-16 0.26042485
0.28941032 -0.05 -0.061399588 -7.025962 1.0643684e-16 0.28286602
0.28385863 -0.05 -0.061178396 -7.2056671 1.7916315e-16 0.30966428
0.27838746 -0.05 -0.060945834 -7.3782245 2.2592338e-16 0.33693882
0.27299569 -0.05 -0.060702133 -7.5528796 3.7967488e-16 0.36536687
0.26768219 -0.05 -0.06044755 -7.7275462 -2.644595e-16 0.39499029
0.26244588 -0.05 -0.060182321 -7.9019469 -2.5613832e-16 0.42570289
0.2572857 -0.05 -0.059906656 -8.0758353 -1.615926e-17 0.4576672
0.25220057 -0.05 -0.059620806 -8.2491905 1.3666691e-16 0.4907087
0.24718946 -0.05 -0.059324982 -8.4228367 5.3409297e-17 0.52521787
0.24225132 -0.05 -0.059019333 -8.5964138 1.2617397e-16 0.56087154
0.23738515 -0.05 -0.058704103 -8.7698393 4.2657534e-16 0.59773186
0.23258996 -0.05 -0.058379499 -8.9417948 2.3203991e-16 0.63566328
0.22786476 -0.05 -0.058045751 -9.1111152 1.3412705e-16 0.67468967
0.22320855 -0.05 -0.05770307 -9.2788018 4.2931143e-16 0.71498752
0.2186204 -0.05 -0.057351594 -9.4441034 1.0387437e-17 0.75649129
0.21409937 -0.05 -0.056991556 -9.6079764 -4.1830865e-17 0.79911471
0.20964452 -0.05 -0.056623147 -9.7700672 -2.074672e-16 0.84320444
0.20525493 -0.05 -0.056246468 -9.9291489 1.5102016e-16 0.88834944
0.2009297 -0.05 -0.055861754 -10.08665 -7.1418799e-18 0.93465363
0.19666796 -0.05 -0.055469189 -10.24274 4.8435141e-17 0.98226783
0.1924688 -0.05 -0.055068973 -10.397665 -1.4955367e-16 1.0310558
0.18833137 -0.05 -0.05466128 -10.551274 -3.5093309e-16 1.0813501
0.18425484 -0.05 -0.054246167 -10.702073 -9.5827026e-17 1.1328257
0.18023834 -0.05 -0.053823858 -10.850569 -3.0136973e-16 1.1853214
0.17628107 -0.05 -0.053394516 -10.996956 7.5180437e-17 1.2392845
0.1723822 -0.05 -0.052958273 -11.140915 1.3793923e-16 1.2942506
0.16854093 -0.05 -0.05251531 -11.283237 7.1979567e-16 1.3506483
0.16475647 -0.05 -0.052065763 -11.422743 -3.4296225e-16 1.4081699
0.16102805 -0.05 -0.051609742 -11.558026 4.3942708e-16 1.4668566
0.15735491 -0.05 -0.051147352 -11.689213 -3.5813077e-16 1.5264018
0.15373626 -0.05 -0.05067879 -11.816504 1.0400847e-16 1.5870355
0.15017141 -0.05 -0.050204149 -11.938508 3.0200998e-16 1.6486825
0.1466596 -0.05 -0.049723542 -12.054721 1.3924674e-16 1.7109601
0.14320011 -0.05 -0.049237096 -12.165146 1.9687185e-17 1.7742078
0.13979223 -0.05 -0.048744881 -12.268895 -2.2750306e-16 1.8379973
0.13643526 -0.05 -0.048247029 -12.365806 2.3958867e-16 1.9022517
0.13312854 -0.05 -0.047743634 -12.455779 8.5503052e-17 1.9670044
0.12987137 -0.05 -0.047234842 -12.541455 -2.0589425e-18 2.0327382
0.12666308 -0.05 -0.046720739 -12.627142 4.0610414e-16 2.1003821
0.12350304 -0.05 -0.04620133 -12.709938 -5.7352302e-17 2.1686694
0.12039059 -0.05 -0.045676775 -12.785573 -1.7902467e-16 2.2370207
0.11732509 -0.05 -0.045147173 -12.851625 -2.0685871e-16 2.3059145
0.11430593 -0.05 -0.044612518 -12.905659 2.4354438e-16 2.3750386
0.11133252 -0.05 -0.044072863 -12.949354 -4.9538238e-16 2.4447258
0.10840422 -0.05 -0.043528318 -12.986491 -6.5197662e-16 2.5157571
0.10552048 -0.05 -0.042978895 -13.022721 6.984787e-16 2.58905
0.1026807 -0.05 -0.042424666 -13.063984 -8.149378e-16 2.6652343
0.099884301 -0.05 -0.041865765 -13.108436 -3.7512036e-16 2.7451134
0.097130736 -0.05 -0.041302116 -13.160783 9.4433253e-16 2.8294253
0.094419468 -0.05 -0.040733753 -13.224228 -2.3443496e-16 2.9176735
0.091749938 -0.05 -0.040160797 -13.292618 3.9683738e-16 3.00991
0.089121648 -0.05 -0.039583147 -13.365434 8.294189e-16 3.1061868
0.086534075 -0.05 -0.039000849 -13.442898 -1.4537216e-16 3.2060903
0.083986706 -0.05 -0.038413947 -13.52672 -1.8740252e-16 3.3108216
0.081479047 -0.05 -0.037822451 -13.616288 9.3403966e-17 3.4200195
0.07901061 -0.05 -0.037226385 -13.711617 1.1205249e-16 3.5348545
0.07658095 -0.05 -0.036625625 -13.808762 -3.6880477e-16 3.6539262
0.07418961 -0.05 -0.036020146 -13.905265 -6.6263816e-16 3.7762541
0.071836121 -0.05 -0.035410002 -13.999253 -5.124139e-16 3.9018269
0.069520038 -0.05 -0.034795195 -14.089135 3.7383022e-16 4.031326
0.06724096 -0.05 -0.034175596 -14.172377 1.4796898e-16 4.1638109
0.064998478 -0.05 -0.033551147 -14.247468 -9.4147621e-16 4.2987622
0.062792183 -0.05 -0.03292183 -14.313827 4.1254379e-16 4.4367429
0.0606217 -0.05 -0.032287536 -14.36965 -8.1122216e-17 4.5773255
0.058486664 -0.05 -0.031648168 -14.414867 4.0443837e-16 4.7202452
0.056386715 -0.05 -0.031003646 -14.45069 4.0058096e-16 4.8657689
0.054321516 -0.05 -0.030353857 -14.476497 1.2520674e-16 5.0135907
0.052290719 -0.05 -0.029698751 -14.492278 1.5998229e-16 5.164404
0.050294041 -0.05 -0.029038127 -14.496383 -6.3597369e-16 5.317587
0.048331196 -0.05 -0.028371822 -14.487741 -3.3536712e-16 5.4721495
0.046401887 -0.05 -0.027699759 -14.467287 -3.5713957e-16 5.6292981
0.044505865 -0.05 -0.027021743 -14.433679 4.975727e-17 5.7885917
0.042642902 -0.05 -0.026337579 -14.385971 5.5150834e-16 5.9501131
0.040812819 -0.05 -0.025646983 -14.322536 -2.109584e-16 6.1141175
0.039015423 -0.05 -0.024949753 -14.242315 9.6161327e-17 6.2808756
0.037250523 -0.05 -0.024245731 -14.146021 9.8447522e-17 6.4430635
0.035517996 -0.05 -0.023534625 -14.031772 6.096067e-16 6.6037452
0.033817756 -0.05 -0.022816125 -13.899394 -2.6198919e-16 6.7694885
0.032149739 -0.05 -0.022089914 -13.74734 -1.8151016e-16 6.9330317
0.030513907 -0.05 -0.021355672 -13.574006 -6.3631389e-16 7.0945883
0.028910266 -0.05 -0.020613049 -13.378694 -1.4026013e-15 7.2535295
0.027338891 -0.05 -0.019861613 -13.160024 -1.320946e-15 7.4080199
0.025799867 -0.05 -0.019100988 -12.917503 8.1010548e-18 7.5573891
0.024293363 -0.05 -0.018330694 -12.649854 -3.0758938e-16 7.6995487
0.022819608 -0.05 -0.017550223 -12.356667 7.2075173e-16 7.8327632
0.021378887 -0.05 -0.016759078 -12.037669 -1.1431492e-15 7.9553481
0.019971605 -0.05 -0.015956644 -11.690967 -5.7238312e-16 8.064762
0.018598193 -0.05 -0.015142369 -11.314208 -2.4509456e-16 8.1606645
0.017259254 -0.05 -0.014315551 -10.903207 -2.4716836e-16 8.2367355
0.015955479 -0.05 -0.013475459 -10.45703 -4.7174481e-16 8.2891429
0.014687649 -0.05 -0.01262138 -9.9743214 -4.2258431e-17 8.31335
0.013456741 -0.05 -0.011752504 -9.4531075 9.1770513e-17 8.3041884
0.012263916 -0.05 -0.010868017 -8.8936115 7.433599e-16 8.2557528
0.011110526 -0.05 -0.0099670786 -8.3002095 1.1438364e-16 8.1649695
0.0099981588 -0.05 -0.0090487511 -7.6743826 -9.055852e-18 8.0250182
0.0089286019 -0.05 -0.0081120487 -7.0132715 8.3859998e-16 7.8280033
0.0079039497 -0.05 -0.0071561932 -6.3230642 -9.6580467e-18 7.5630668
0.0069267211 -0.05 -0.0061804384 -5.6112247 1.4406445e-16 7.2218351
0.0059996858 -0.05 -0.0051837977 -4.8856988 6.3975071e-17 6.7986808
0.0051259263 -0.05 -0.0041656545 -4.1581525 -1.9174965e-16 6.2894914
0.0043091786 -0.05 -0.0031259782 -3.4426019 -9.7732199e-17 5.6910463
0.0035533239 -0.05 -0.0020645314 -2.7541778 -2.2665807e-16 5.0024303
0.002862441 -0.05 -0.00098163679 -2.0970769 2.815587e-16 4.2272969
0.0022412188 -0.05 0.00012121914 -1.4949266 -3.1095043e-16 3.3813817
0.0016941763 -0.05 0.001242402 -0.98389412 -3.7460438e-16 2.480566
0.0012255633 -0.05 0.0023792616 -0.57569362 -2.089826e-16 1.5416028
0.0008391612 -0.05 0.0035276249 -0.33328087 5.9587392e-17 0.80263794
0.00053789299 -0.05 0.0046829858 -0.18844231 3.3425633e-16 0.18818249
0.00032332316 -0.05 0.0058399806 -0.10214505 -9.9470593e-17 -0.37674316
0.0001953216 -0.05 0.0069925524 -0.089080716 7.7789426e-17 -1.0463211
0.00015217894 -0.05 0.0081346924 -0.1306997 5.6228085e-19 -1.9543417
0.99642537 -0.05 -0.026448461 0.14537876 9.099584e-17 -0.082137657
0.9901848 -0.05 -0.0271275 -0.040960921 -3.1707475e-16 -0.004403874
0.98394346 -0.05 -0.027799521 0.023408117 6.1505284e-16 0.0011229575
0.97770137 -0.05 -0.028464551 -0.0038025172 4.1497353e-16 -0.0011839434
0.97145856 -0.05 -0.029122697 -0.0058859951 -1.6974325e-16 -0.0014078529
0.96521504 -0.05 -0.029774118 -0.015280726 -4.5255269e-16 -0.0024983769
0.95897082 -0.05 -0.030418798 -0.020763385 2.2798402e-16 -0.002971276
0.95272592 -0.05 -0.031056801 -0.028897069 2.5419167e-17 -0.0037645055
0.94648035 -0.05 -0.031688281 -0.037168306 1.955132e-16 -0.0045184196
0.94023414 -0.05 -0.032313326 -0.046395524 6.6109781e-16 -0.0053566454
0.93398728 -0.05 -0.032931939 -0.056273214 6.772133e-16 -0.0062286284
0.9277398 -0.05 -0.03354418 -0.066560759 1.2367151e-16 -0.0071221757
0.92149169 -0.05 -0.034150129 -0.077286413 2.5534471e-16 -0.0080496706
0.915243 -0.05 -0.034749819 -0.0883527 -1.0252692e-16 -0.008987087
0.90899371 -0.05 -0.035343402 -0.099867557 -2.3064724e-16 -0.0099425877
0.90274385 -0.05 -0.035930877 -0.1116205 1.8327673e-16 -0.010892069
0.89649342 -0.05 -0.036512274 -0.12357368 1.6774011e-16 -0.011853663
0.89024244 -0.05 -0.037087731 -0.13586081 -9.5000043e-17 -0.012821006
0.88399092 -0.05 -0.037657262 -0.14847519 -6.3184301e-17 -0.013792899
0.87773886 -0.05 -0.03822081 -0.16127064 6.0163086e-18 -0.014757617
0.87148627 -0.05 -0.038778513 -0.17431181 1.7730516e-16 -0.015727123
0.86523317 -0.05 -0.039330439 -0.18769607 2.9110136e-16 -0.016701637
0.85897956 -0.05 -0.039876561 -0.20133185 -2.6767517e-16 -0.017673317
0.85272545 -0.05 -0.040416966 -0.21525956 -3.9589777e-17 -0.018657291
0.84647085 -0.05 -0.040951715 -0.22965028 4.5819633e-17 -0.019692313
0.84021579 -0.05 -0.041480796 -0.24505685 5.0426479e-16 -0.020732721
0.83396023 -0.05 -0.042004172 -0.26107543 2.0771323e-16 -0.021795146
0.82770421 -0.05 -0.04252202 -0.27750569 -5.098676e-17 -0.02286979
0.82144774 -0.05 -0.0430343 -0.29435071 3.3790352e-16 -0.023952236
0.81519081 -0.05 -0.043540965 -0.31145699 -8.803889e-17 -0.025025578
0.80893344 -0.05 -0.044042095 -0.32903476 -1.6482148e-17 -0.026107385
0.80267562 -0.05 -0.0445377 -0.34695855 -2.9437249e-16 -0.027184279
0.79641736 -0.05 -0.045027812 -0.36537293 -3.5401438e-16 -0.028268518
0.79015869 -0.05 -0.045512385 -0.38414188 -4.8136446e-16 -0.029351214
0.78389959 -0.05 -0.045991508 -0.40342606 -1.851241e-16 -0.030438185
0.77764008 -0.05 -0.046465144 -0.42321885 -9.5636314e-18 -0.031526193
0.77138014 -0.05 -0.046933263 -0.44341206 -1.8606336e-16 -0.032613451
0.7651198 -0.05 -0.047395925 -0.46420446 2.5765261e-16 -0.033707348
0.75885905 -0.05 -0.047853117 -0.48553345 -5.3856772e-17 -0.034800694
0.75259791 -0.05 -0.048304828 -0.50745536 -1.8681995e-16 -0.035897186
0.74633638 -0.05 -0.048751031 -0.52994238 1.9065807e-16 -0.036994145
0.74007446 -0.05 -0.04919171 -0.55305535 3.3433257e-16 -0.038092304
0.73381215 -0.05 -0.049626851 -0.57682737 -3.1446922e-16 -0.039190515
0.72754945 -0.05 -0.050056419 -0.6012229 8.7293674e-17 -0.040291048
0.72128638 -0.05 -0.050480446 -0.62627808 -1.5141611e-16 -0.041396359
0.71502294 -0.05 -0.050898965 -0.65221424 1.6599059e-16 -0.042501618
0.70875912 -0.05 -0.051311797 -0.67881143 1.4118933e-16 -0.043598522
0.70249492 -0.05 -0.051718996 -0.70619008 2.0439306e-16 -0.04470358
0.69623037 -0.05 -0.052120527 -0.7345489 -3.9424046e-17 -0.045800678
0.68996545 -0.05 -0.052516296 -0.76354944 -6.7849899e-17 -0.046899562
0.68370017 -0.05 -0.052906362 -0.79364488 1.9697997e-16 -0.048000769
0.67743453 -0.05 -0.053290625 -0.82466041 -1.2245055e-16 -0.049099607
0.67116853 -0.05 -0.053669095 -0.85675176 2.4197339e-16 -0.050192816
0.66490219 -0.05 -0.054041657 -0.8898921 -3.8689733e-17 -0.051266721
0.65863549 -0.05 -0.054408209 -0.92383059 -2.1440242e-16 -0.052333928
0.65236844 -0.05 -0.054768838 -0.95900823 2.63161e-17 -0.053400191
0.64610106 -0.05 -0.055123457 -0.99547386 3.5486583e-16 -0.054438512
0.63983332 -0.05 -0.055471898 -1.0330043 -7.4453253e-17 -0.055456639
0.63356525 -0.05 -0.05581413 -1.0717062 -8.5637457e-17 -0.056461064
0.62729684 -0.05 -0.056150155 -1.1118892 1.1041268e-16 -0.057452896
0.6210281 -0.05 -0.056479837 -1.1537338 7.8608876e-17 -0.058433285
0.61475902 -0.05 -0.056803089 -1.1978323 1.5768165e-16 -0.059497941
0.6084896 -0.05 -0.057119908 -1.2457983 -3.5666305e-16 -0.060728172
0.60221986 -0.05 -0.057430151 -1.2985882 -5.2656343e-16 -0.062080313
0.5959498 -0.05 -0.057733745 -1.3549848 -3.0011069e-16 -0.063371522
0.58967941 -0.05 -0.058030607 -1.4132149 5.5488816e-17 -0.064512719
0.5834087 -0.05 -0.058320646 -1.4725789 2.7095143e-16 -0.065546796
0.57713767 -0.05 -0.058603744 -1.5332768 5.539094e-18 -0.066471184
0.57086633 -0.05 -0.058879759 -1.5951807 -3.1455427e-17 -0.067293866
0.56459469 -0.05 -0.059148659 -1.6587879 -1.5413686e-16 -0.067967008
0.55832274 -0.05 -0.059410319 -1.7241616 3.9474384e-17 -0.068215432
0.55205047 -0.05 -0.059664579 -1.7907044 1.4711958e-16 -0.068399711
0.54577791 -0.05 -0.059911368 -1.8592161 -1.8387613e-16 -0.068773878
0.53950506 -0.05 -0.060150523 -1.9298633 1.8118194e-16 -0.069014764
0.53323192 -0.05 -0.060381905 -2.0024316 1.0241137e-16 -0.069135697
0.52695848 -0.05 -0.060605442 -2.0773896 1.4543627e-16 -0.069101461
0.52068478 -0.05 -0.060820964 -2.1545558 -2.9696412e-16 -0.06889385
0.51441079 -0.05 -0.061028327 -2.2340124 9.50358e-17 -0.068510918
0.50813654 -0.05 -0.061227366 -2.3158131 -3.8827004e-18 -0.067918443
0.50186202 -0.05 -0.061417941 -2.4000889 -1.1519406e-16 -0.067141515
0.49558725 -0.05 -0.061599928 -2.4870378 -1.3975352e-16 -0.066128427
0.48931223 -0.05 -0.061773133 -2.5764591 4.3539292e-17 -0.064863547
0.48303697 -0.05 -0.06193735 -2.6683049 -7.0150729e-17 -0.063326281
0.47676147 -0.05 -0.062092455 -2.7627619 5.1950446e-18 -0.061544737
0.47048575 -0.05 -0.062238311 -2.8601052 -6.8978335e-17 -0.059432655
0.46420983 -0.05 -0.062374667 -2.9602066 1.3776078e-16 -0.05697232
0.4579337 -0.05 -0.062501308 -3.0630678 3.1578254e-18 -0.054171891
0.45165738 -0.05 -0.062618073 -3.1688011 4.9129321e-17 -0.051020775
0.44538087 -0.05 -0.06272478 -3.277434 -4.9646958e-17 -0.047451749
0.43910419 -0.05 -0.062821202 -3.3890089 2.9914206e-18 -0.043443288
0.43282738 -0.05 -0.062907098 -3.5034222 9.3260295e-18 -0.038969071
0.42655042 -0.05 -0.062982259 -3.6208785 -8.4895282e-17 -0.034018094
0.42027334 -0.05 -0.063046488 -3.7416341 -5.2002362e-19 -0.028556458
0.41399615 -0.05 -0.063099533 -3.8656017 -1.5196998e-17 -0.022616456
0.40771888 -0.05 -0.06314112 -3.992574 6.443046e-21 -0.016226004
0.40144154 -0.05 -0.063171022 -4.1227884 1.2146748e-17 -0.0086411045
0.39516416 -0.05 -0.063188955 -4.2562389 -5.3530024e-18 -0.00069081727
0.38888675 -0.05 -0.063194611 -4.3925877 -3.5690027e-19 0.0080749727
0.38260935 -0.05 -0.063187777 -4.5325124 -1.1904124e-17 0.017799404
0.37633197 -0.05 -0.063168211 -4.6763096 5.9682574e-18 0.027788071
0.37005465 -0.05 -0.063135515 -4.8231918 -9.2989365e-17 0.038782036
0.36377741 -0.05 -0.063089371 -4.9729788 -3.0304239e-17 0.050751856
0.35750029 -0.05 -0.063029536 -5.1264182 2.1059353e-17 0.063698363
0.35122332 -0.05 -0.062955677 -5.283603 -1.3017905e-17 0.077668631
0.34494653 -0.05 -0.062867437 -5.444302 1.3681461e-16 0.092734598
0.33866996 -0.05 -0.062764431 -5.6078422 1.2079224e-17 0.10892726
0.33239367 -0.05 -0.062646328 -5.7745871 -1.3193424e-16 0.12629486
0.32611768 -0.05 -0.062512741 -5.9451113 2.8550976e-18 0.14499649
0.31984206 -0.05 -0.062363246 -6.118356 -6.6234927e-17 0.16500243
0.31356684 -0.05 -0.062197455 -6.2942073 -1.0717594e-16 0.1865058
0.30729208 -0.05 -0.062014956 -6.476121 3.7752234e-16 0.20988438
0.30101786 -0.05 -0.061815314 -6.7166868 -2.5587224e-16 0.2362821
0.29922108 -0.05 0.058325934 -7.2253154 -1.9495961e-16 0.2434063
0.29358681 -0.05 0.058508741 -7.2078051 -1.4207745e-16 0.2230986
0.28803318 -0.05 0.058674354 -7.1432817 -4.4685469e-17 0.20239061
0.28255909 -0.05 0.058823024 -7.0847484 9.9975999e-17 0.18181775
0.27716343 -0.05 0.058955056 -7.0285579 -8.4336229e-17 0.16150644
0.2718451 -0.05 0.059070786 -6.9754844 -1.19463e-16 0.14133142
0.26660303 -0.05 0.059170527 -6.9251045 7.0050487e-17 0.12137157
0.26143617 -0.05 0.05925456 -6.8774229 2.6086243e-17 0.10161236
0.25634347 -0.05 0.059323211 -6.8324318 8.9597667e-17 0.082494497
0.25132392 -0.05 0.059376763 -6.7902545 1.632647e-18 0.063452801
0.24637648 -0.05 0.059415435 -6.7501396 -3.6961762e-17 0.043285242
0.24150019 -0.05 0.059439541 -6.7123802 1.1735715e-17 0.022782837
0.23669403 -0.05 0.059449359 -6.6761582 3.0930157e-18 0.0029527246
0.23195705 -0.05 0.059445186 -6.6412376 -1.3900667e-18 -0.017300252
0.22728828 -0.05 0.0594273 -6.6086823 -4.8658211e-20 -0.037711
0.2226868 -0.05 0.059395905 -6.5782631 4.9087643e-18 -0.056158411
0.21815167 -0.05 0.059351299 -6.5499336 -2.6837037e-17 -0.075096838
0.21368198 -0.05 0.059293738 -6.5241343 -3.279544e-17 -0.094689576
0.20927682 -0.05 0.059223386 -6.4999351 7.4608837e-17 -0.11453092
0.20493531 -0.05 0.05914054 -6.4777418 -1.5699281e-17 -0.1344057
0.20065658 -0.05 0.059045446 -6.4576225 -1.043662e-16 -0.1544203
0.19643976 -0.05 0.058938364 -6.43971 8.3868642e-17 -0.17452756
0.192284 -0.05 0.05881953 -6.4244064 1.4569666e-16 -0.1949987
0.18818845 -0.05 0.058689056 -6.4107584 -1.1569174e-16 -0.21564326
0.18415231 -0.05 0.058547226 -6.399048 -2.2136318e-16 -0.23638316
0.18017475 -0.05 0.058394259 -6.389553 2.6868281e-17 -0.25750974
0.17625498 -0.05 0.058230345 -6.3815025 -7.7554874e-18 -0.27873953
0.1723922 -0.05 0.05805572 -6.3756347 -1.4790509e-17 -0.30035044
0.16858563 -0.05 0.057870573 -6.3715443 -2.1451069e-16 -0.32225924
0.16483452 -0.05 0.057675069 -6.3692274 -5.7007244e-17 -0.34461359
0.1611381 -0.05 0.057469366 -6.3680676 1.0354e-16 -0.36716989
0.15749563 -0.05 0.057253714 -6.3688001 5.8422649e-17 -0.39013287
0.15390639 -0.05 0.057028255 -6.3713765 -4.0399194e-18 -0.41360884
0.15036964 -0.05 0.056793154 -6.3757432 -1.2700014e-16 -0.43745395
0.14688469 -0.05 0.056548588 -6.3822908 3.5100449e-17 -0.46194564
0.14345083 -0.05 0.056294675 -6.3902439 1.0078111e-16 -0.48687319
0.14006736 -0.05 0.056031597 -6.3997811 -1.3329828e-16 -0.51231365
0.13673363 -0.05 0.055759494 -6.4108779 -2.6200251e-16 -0.53830372
0.13344895 -0.05 0.055478559 -6.4238136 1.4996363e-17 -0.56487556
0.13021267 -0.05 0.055188925 -6.438736 2.80091e-17 -0.59235292
0.12702415 -0.05 0.054890641 -6.4543432 -6.5418083e-18 -0.62023412
0.12388275 -0.05 0.054583912 -6.471503 -4.3629434e-16 -0.64872176
0.12078782 -0.05 0.054268881 -6.4908539 1.180933e-16 -0.67826405
0.11773878 -0.05 0.053945586 -6.5113857 2.8614489e-16 -0.70860463
0.11473502 -0.05 0.05361412 -6.5330348 -3.2353979e-16 -0.73968309
0.11177594 -0.05 0.053274636 -6.556098 -2.4919213e-16 -0.77167099
0.10886096 -0.05 0.052927187 -6.580375 4.4729623e-16 -0.80455131
0.1059895 -0.05 0.052571884 -6.6057045 -3.1928699e-16 -0.83813083
0.10316099 -0.05 0.052208904 -6.6335386 -1.7692285e-16 -0.87316204
0.10037488 -0.05 0.051838205 -6.6625041 -3.9816029e-16 -0.90921635
0.097630635 -0.05 0.051459861 -6.692614 3.3610521e-17 -0.94614685
0.09492771 -0.05 0.051074031 -6.7255693 1.3232333e-16 -0.98481508
0.092265599 -0.05 0.05068065 -6.7595611 1.9304116e-16 -1.024633
0.089643781 -0.05 0.050279797 -6.7936094 -3.4955294e-16 -1.0653037
0.087061752 -0.05 0.049871556 -6.8289603 5.1856664e-16 -1.1074729
0.084519016 -0.05 0.04945597 -6.8645618 1.6240019e-16 -1.1508435
0.082015088 -0.05 0.049033093 -6.9016448 2.132741e-16 -1.1962016
0.079549516 -0.05 0.048602838 -6.9383489 -2.8451186e-16 -1.2427907
0.077121843 -0.05 0.048165209 -6.9755325 4.352321e-17 -1.2906709
0.074731606 -0.05 0.047720292 -7.0147385 2.5712629e-17 -1.3404988
0.072378359 -0.05 0.047268121 -7.0567926 1.5935324e-16 -1.392951
0.070061695 -0.05 0.046808594 -7.1005244 2.3034226e-17 -1.4475862
0.0677812 -0.05 0.046341685 -7.1452404 -6.0798358e-16 -1.5041701
0.065536466 -0.05 0.045867401 -7.1910751 -5.0696915e-16 -1.5630669
0.063327111 -0.05 0.04538566 -7.2369701 4.5576565e-16 -1.6239679
0.061152764 -0.05 0.04489639 -7.2825038 -1.0234508e-17 -1.6869091
0.05901306 -0.05 0.044399539 -7.3281093 3.4252009e-16 -1.7524421
0.056907656 -0.05 0.043895014 -7.3742298 5.8801503e-16 -1.8208599
0.0548362 -0.05 0.043382792 -7.4211034 3.136866e-16 -1.8927738
0.052798396 -0.05 0.042862692 -7.4677142 1.6541706e-16 -1.9676725
0.050793949 -0.05 0.042334571 -7.5122826 6.9996445e-16 -2.0447053
0.048822555 -0.05 0.041798372 -7.5582889 4.9460228e-16 -2.1256214
0.046883953 -0.05 0.041253919 -7.6045534 -8.979817e-17 -2.2105531
0.044977903 -0.05 0.040701032 -7.6535862 -4.3222479e-16 -2.3012614
0.043104206 -0.05 0.040139442 -7.7046159 -3.4826611e-16 -2.3972602
0.041262654 -0.05 0.039568959 -7.7561406 -2.777425e-16 -2.4977092
0.039453047 -0.05 0.038989439 -7.806682 4.2395609e-16 -2.6029205
0.037675243 -0.05 0.038400601 -7.854281 -2.0506178e-16 -2.712434
0.035929132 -0.05 0.037802139 -7.8968836 -5.0672651e-16 -2.8265095
0.03421463 -0.05 0.037193743 -7.9378631 -1.0950645e-16 -2.9483891
0.032531675 -0.05 0.036575098 -7.9783107 3.4602017e-16 -3.079337
0.030880251 -0.05 0.03594585 -8.0160395 2.1280204e-16 -3.2169398
0.029260402 -0.05 0.035305567 -8.0460823 1.610923e-16 -3.3600003
0.027672186 -0.05 0.034653866 -8.0743677 1.2649282e-16 -3.5104388
0.026115737 -0.05 0.033990256 -8.1029112 -7.4401274e-16 -3.6704055
0.024591252 -0.05 0.033314217 -8.1361283 -3.3063918e-17 -3.8441969
0.023098976 -0.05 0.032625229 -8.1597904 1.9584887e-16 -4.0263084
0.021639274 -0.05 0.031922655 -8.1529204 -1.9158927e-16 -4.2104871
0.020212535 -0.05 0.031205911 -8.1052955 -7.2514923e-16 -4.3985353
0.018819314 -0.05 0.030474256 -8.0027965 -1.6795818e-16 -4.5941215
0.017460247 -0.05 0.029726913 -7.8399621 3.8709168e-16 -4.8056778
0.016136065 -0.05 0.028963114 -7.6502265 -9.6612492e-16 -5.0517616
0.014847688 -0.05 0.028181987 -7.4551469 -5.5388969e-16 -5.3374141
0.013596213 -0.05 0.027382638 -7.2513665 -4.5729851e-16 -5.6762079
0.012382933 -0.05 0.026564132 -7.058545 1.027136e-15 -6.0956168
0.011209367 -0.05 0.025725424 -6.8827068 -7.0241091e-16 -6.5966142
0.010077229 -0.05 0.024865409 -6.7267405 -1.2132303e-15 -7.1587985
0.008988555 -0.05 0.023983162 -6.6384906 -2.134432e-18 -7.7674005
0.0079458046 -0.05 0.023077765 -6.6216584 2.0326966e-17 -8.4047772
0.0069516726 -0.05 0.022148039 -6.5759073 2.2650786e-16 -9.0031062
0.0060091913 -0.05 0.021193156 -6.4172634 8.2853173e-17 -9.4983326
0.0051220853 -0.05 0.020212827 -6.1142869 4.6321439e-16 -9.8652119
0.0042942102 -0.05 0.019206543 -5.6466951 1.4475248e-16 -10.042775
0.0035296571 -0.05 0.018174342 -5.0297904 -5.4249758e-16 -10.021941
0.0028332069 -0.05 0.017117382 -4.3161698 1.2035183e-16 -9.7954484
0.0022094816 -0.05 0.016036978 -3.5500349 -1.3394175e-16 -9.3305639
0.001662905 -0.05 0.014935478 -2.7675571 9.1114941e-17 -8.6431204
0.0011975397 -0.05 0.013816782 -2.0145364 1.8767043e-18 -7.7415869
0.00081661503 -0.05 0.012685182 -1.3376009 -3.196672e-16 -6.6790696
0.00052206498 -0.05 0.01154592 -0.82118236 1.9617432e-16 -5.5139483
0.00031418117 -0.05 0.010405048 -0.44930929 2.9378489e-17 -4.2897478
0.00019167642 -0.05 0.0092686771 -0.22647529 1.4095277e-17 -3.0891177
0.99645668 -0.05 -0.025549654 -29.936273 2.5289323e-16 5.0827665
0.99027848 -0.05 -0.024438061 -27.532819 -4.6218897e-16 4.8825955
0.98409902 -0.05 -0.023333415 -27.522842 -1.3178e-16 4.8906322
0.97791833 -0.05 -0.022235691 -27.762829 -1.1328952e-15 4.9000902
0.97173643 -0.05 -0.021144784 -27.885087 4.9728769e-16 4.8919152
0.96555337 -0.05 -0.020060536 -27.979525 7.3934935e-16 4.8783276
0.95936914 -0.05 -0.018982964 -28.037172 1.0933115e-15 4.8580703
0.95318376 -0.05 -0.017912006 -28.066132 1.3565564e-15 4.8335028
0.94699727 -0.05 -0.016847509 -28.071402 -1.3227936e-16 4.8048281
0.94080967 -0.05 -0.015789387 -28.055136 -1.5815928e-16 4.7727779
0.934621 -0.05 -0.014737636 -28.021934 1.7054e-15 4.7375582
0.92843126 -0.05 -0.013692196 -27.973322 1.2443754e-15 4.7004974
0.92224046 -0.05 -0.012652992 -27.913616 -2.1437509e-16 4.6614403
0.91604862 -0.05 -0.01161999 -27.842459 9.9377084e-16 4.6213527
0.90985578 -0.05 -0.01059304 -27.761323 9.7259736e-17 4.5800573
0.90366194 -0.05 -0.0095721423 -27.667244 -2.692369e-17 4.5369285
0.89746712 -0.05 -0.0085572678 -27.561303 -1.5035724e-15 4.4926194
0.89127132 -0.05 -0.0075482811 -27.441959 -3.5236748e-16 4.4466707
0.88507457 -0.05 -0.0065451685 -27.309701 1.1147138e-15 4.3987141
0.87887687 -0.05 -0.0055479866 -27.164157 -2.4687429e-16 4.3491172
0.87267825 -0.05 -0.0045565989 -27.010106 -6.2255725e-16 4.2989714
0.8664787 -0.05 -0.0035709379 -26.849785 1.0719737e-15 4.2478203
0.86027824 -0.05 -0.0025910322 -26.686201 1.784532e-16 4.196707
0.85407689 -0.05 -0.0016167959 -26.520268 1.7449012e-15 4.1457972
0.84787466 -0.05 -0.0006481668 -26.354429 4.1792205e-16 4.0952785
0.84167156 -0.05 0.00031484121 -26.18763 -6.9967938e-16 4.0448674
0.83546758 -0.05 0.0012721919 -26.019504 -1.6350039e-15 3.9948756
0.82926274 -0.05 0.0022240597 -25.849466 -7.0066855e-18 3.945448
0.82305708 -0.05 0.0031704044 -25.675701 4.2755819e-16 3.895231
0.81685057 -0.05 0.0041111798 -25.495332 2.2096269e-17 3.845035
0.81064322 -0.05 0.0050464647 -25.306158 -4.3496121e-16 3.7937371
0.80443505 -0.05 0.0059762685 -25.105946 2.074361e-15 3.7414851
0.79822606 -0.05 0.0069006227 -24.896106 -9.8638149e-16 3.6878948
0.79201627 -0.05 0.0078194821 -24.678555 -1.0866115e-15 3.6335948
0.78580568 -0.05 0.0087329328 -24.45781 7.2203326e-16 3.5792459
0.77959428 -0.05 0.0096409398 -24.235646 4.2465327e-16 3.5247557
0.77338209 -0.05 0.010543471 -24.013113 -2.0386682e-15 3.4708836
0.76716911 -0.05 0.011440587 -23.790445 -4.5152482e-16 3.4173483
0.76095535 -0.05 0.012332274 -23.568195 -7.3743777e-16 3.3642517
0.75474082 -0.05 0.013218522 -23.34574 1.6187606e-16 3.3115423
0.74852551 -0.05 0.014099302 -23.122497 8.5305183e-17 3.2591298
0.74230941 -0.05 0.014974599 -22.896543 1.7180806e-16 3.2068463
0.73609255 -0.05 0.015844399 -22.665158 9.3859658e-16 3.1542983
0.72987493 -0.05 0.016708664 -22.424086 1.0135769e-16 3.1009238
0.72365654 -0.05 0.01756743 -22.170396 -9.4388768e-16 3.0463643
0.71743739 -0.05 0.018420725 -21.903102 2.1700134e-15 2.9900053
0.71121747 -0.05 0.019268375 -21.624796 -8.6013321e-16 2.9321329
0.70499679 -0.05 0.02011043 -21.343895 1.137612e-16 2.8746055
0.69877535 -0.05 0.020946858 -21.065602 -7.1537346e-17 2.8172228
0.69255316 -0.05 0.021777563 -20.789821 -5.3526268e-16 2.7610275
0.6863302 -0.05 0.022602602 -20.517012 6.2736039e-17 2.7054439
0.68010648 -0.05 0.023421878 -20.247312 3.9517665e-16 2.6507416
0.67388201 -0.05 0.024235399 -19.981752 -1.7785224e-15 2.5969836
0.66765677 -0.05 0.025043051 -19.718239 7.6513732e-16 2.5437293
0.66143076 -0.05 0.025844734 -19.45374 3.3029053e-16 2.4911812
0.65520399 -0.05 0.026640531 -19.18358 4.8142797e-17 2.4385531
0.64897646 -0.05 0.027430356 -18.900515 8.1129367e-16 2.3845294
0.64274817 -0.05 0.028214043 -18.598441 9.3886684e-17 2.3285329
0.63651909 -0.05 0.028991559 -18.280042 -2.859317e-16 2.270817
0.63028925 -0.05 0.029762907 -17.958816 -5.3261947e-16 2.213004
0.62405864 -0.05 0.03052795 -17.63895 -2.0147064e-15 2.1556939
0.61782724 -0.05 0.031286602 -17.320591 1.2572365e-15 2.0994998
0.61159506 -0.05 0.032038861 -17.004589 2.9729146e-16 2.0440817
0.6053621 -0.05 0.032784582 -16.691287 -1.6046998e-15 1.989191
0.59912835 -0.05 0.033523692 -16.381691 -1.7376183e-16 1.9351552
0.59289382 -0.05 0.034256109 -16.076354 4.2176932e-16 1.8817353
0.58665849 -0.05 0.034981742 -15.77711 -9.2275617e-16 1.8292386
0.58042236 -0.05 0.035700474 -15.480491 -7.3122865e-17 1.7772262
0.57418542 -0.05 0.036412161 -15.186653 -3.3265363e-16 1.7260414
0.56794768 -0.05 0.037116771 -14.896686 9.0270021e-16 1.6757803
0.56170913 -0.05 0.037814181 -14.610103 -1.4797469e-15 1.6260695
0.55546976 -0.05 0.03850423 -14.326143 -9.4809063e-16 1.5767137
0.54922958 -0.05 0.039186846 -14.045074 -1.3906554e-15 1.528085
0.54298856 -0.05 0.039861867 -13.766332 4.0410363e-16 1.4801325
0.53674672 -0.05 0.040529154 -13.48989 -7.4066581e-16 1.4331048
0.53050405 -0.05 0.041188637 -13.215666 2.1556132e-15 1.3868205
0.52426053 -0.05 0.041840141 -12.945159 -3.2716714e-16 1.3415531
0.51801619 -0.05 0.042483527 -12.681569 5.5017036e-16 1.297408
0.51177098 -0.05 0.043118627 -12.426598 6.0477972e-16 1.2545754
0.50552493 -0.05 0.043745302 -12.175082 6.4523442e-16 1.2125955
0.49927803 -0.05 0.044363429 -11.933898 -5.1717167e-16 1.1719318
0.49303026 -0.05 0.04497281 -11.701117 7.594483e-16 1.1322694
0.48678163 -0.05 0.045573242 -11.477287 3.9905621e-16 1.0937919
0.48053214 -0.05 0.046164601 -11.263127 -2.0837572e-16 1.0566849
0.47428178 -0.05 0.046746749 -11.05912 -2.4640197e-16 1.0207975
0.46803055 -0.05 0.047319435 -10.863739 2.2546098e-16 0.98599101
0.46177843 -0.05 0.047882444 -10.675186 -2.1724998e-16 0.95214025
0.45552545 -0.05 0.048435614 -10.492606 -4.4896865e-16 0.919123
0.44927159 -0.05 0.048978762 -10.315611 -4.5534257e-16 0.88680942
0.44301683 -0.05 0.049511661 -10.143693 5.0775224e-16 0.85512008
0.4367612 -0.05 0.050034072 -9.976468 -4.1515387e-16 0.82403634
0.43050468 -0.05 0.050545782 -9.8137663 3.7240235e-16 0.7935705
0.42424728 -0.05 0.051046595 -9.655743 -5.7155706e-16 0.76367749
0.417989 -0.05 0.05153626 -9.5021219 -2.7306873e-17 0.73426583
0.41172982 -0.05 0.0520145 -9.3526328 3.2496479e-16 0.70534711
0.40546979 -0.05 0.052481088 -9.2072712 6.5628759e-16 0.67693675
0.39920886 -0.05 0.052935739 -9.0658838 -6.2441841e-16 0.64888818
0.39294706 -0.05 0.053378145 -8.9279135 -7.9932869e-16 0.62129322
0.3866844 -0.05 0.053808089 -8.7937681 2.5855944e-16 0.59417636
0.38042087 -0.05 0.054225331 -8.6636367 -1.3793789e-16 0.56740709
0.37415648 -0.05 0.054629472 -8.5369689 2.3287477e-16 0.54085633
0.36789125 -0.05 0.055020191 -8.4133531 -4.1785578e-16 0.51475946
0.36162518 -0.05 0.055397245 -8.2933539 5.8596589e-16 0.48896993
0.35535828 -0.05 0.055760297 -8.1768808 -4.9820701e-16 0.46347372
0.34909056 -0.05 0.056108991 -8.0638665 3.3621708e-16 0.43821019
0.34282204 -0.05 0.056442938 -7.9539004 4.8077719e-16 0.41316742
0.33655273 -0.05 0.056761808 -7.8471848 2.1245251e-16 0.38840179
0.33028267 -0.05 0.057065208 -7.7436968 2.1344777e-16 0.36374774
0.32401184 -0.05 0.057352715 -7.643091 3.7787225e-16 0.33932858
0.3177403 -0.05 0.057623937 -7.546314 -7.6021338e-17 0.31513682
0.31146806 -0.05 0.057878458 -7.4541105 1.2964703e-18 0.29118171
0.30519514 -0.05 0.058115842 -7.3102708 -8.5177053e-17 0.26446752
