# yPlus  FACE_DATA 448
# x y z  yPlus
0.29504365 -0.05 -0.06160924 22.762107
0.28941032 -0.05 -0.061399588 22.744167
0.28385863 -0.05 -0.061178396 22.929546
0.27838746 -0.05 -0.060945834 23.099198
0.27299569 -0.05 -0.060702133 23.269182
0.26768219 -0.05 -0.06044755 23.436552
0.26244588 -0.05 -0.060182321 23.600865
0.2572857 -0.05 -0.059906656 23.762376
0.25220057 -0.05 -0.059620806 23.920781
0.24718946 -0.05 -0.059324982 24.077823
0.24225132 -0.05 -0.059019333 24.232843
0.23738515 -0.05 -0.058704103 24.386135
0.23258996 -0.05 -0.058379499 24.535884
0.22786476 -0.05 -0.058045751 24.68076
0.22320855 -0.05 -0.05770307 24.822229
0.2186204 -0.05 -0.057351594 24.959771
0.21409937 -0.05 -0.056991556 25.094453
0.20964452 -0.05 -0.056623147 25.226322
0.20525493 -0.05 -0.056246468 25.353765
0.2009297 -0.05 -0.055861754 25.478762
0.19666796 -0.05 -0.055469189 25.601737
0.1924688 -0.05 -0.055068973 25.72301
0.18833137 -0.05 -0.05466128 25.842699
0.18425484 -0.05 -0.054246167 25.95899
0.18023834 -0.05 -0.053823858 26.072338
0.17628107 -0.05 -0.053394516 26.183626
0.1723822 -0.05 -0.052958273 26.291923
0.16854093 -0.05 -0.05251531 26.398791
0.16475647 -0.05 -0.052065763 26.502486
0.16102805 -0.05 -0.051609742 26.601983
0.15735491 -0.05 -0.051147352 26.697123
0.15373626 -0.05 -0.05067879 26.788321
0.15017141 -0.05 -0.050204149 26.87458
0.1466596 -0.05 -0.049723542 26.954698
0.14320011 -0.05 -0.049237096 27.029261
0.13979223 -0.05 -0.048744881 27.097195
0.13643526 -0.05 -0.048247029 27.158356
0.13312854 -0.05 -0.047743634 27.213145
0.12987137 -0.05 -0.047234842 27.263883
0.12666308 -0.05 -0.046720739 27.316247
0.12350304 -0.05 -0.04620133 27.366491
0.12039059 -0.05 -0.045676775 27.409563
0.11732509 -0.05 -0.045147173 27.44366
0.11430593 -0.05 -0.044612518 27.466226
0.11133252 -0.05 -0.044072863 27.479262
0.10840422 -0.05 -0.043528318 27.486325
0.10552048 -0.05 -0.042978895 27.494453
0.1026807 -0.05 -0.042424666 27.508336
0.099884301 -0.05 -0.041865765 27.527165
0.097130736 -0.05 -0.041302116 27.556562
0.094419468 -0.05 -0.040733753 27.597691
0.091749938 -0.05 -0.040160797 27.645344
0.089121648 -0.05 -0.039583147 27.699966
0.086534075 -0.05 -0.039000849 27.759087
0.083986706 -0.05 -0.038413947 27.827039
0.081479047 -0.05 -0.037822451 27.900741
0.07901061 -0.05 -0.037226385 27.982585
0.07658095 -0.05 -0.036625625 28.067779
0.07418961 -0.05 -0.036020146 28.153191
0.071836121 -0.05 -0.035410002 28.23628
0.069520038 -0.05 -0.034795195 28.317218
0.06724096 -0.05 -0.034175596 28.393741
0.064998478 -0.05 -0.033551147 28.463117
0.062792183 -0.05 -0.03292183 28.526026
0.0606217 -0.05 -0.032287536 28.581164
0.058486664 -0.05 -0.031648168 28.628273
0.056386715 -0.05 -0.031003646 28.668632
0.054321516 -0.05 -0.030353857 28.702234
0.052290719 -0.05 -0.029698751 28.728038
0.050294041 -0.05 -0.029038127 28.748832
0.048331196 -0.05 -0.028371822 28.758586
0.046401887 -0.05 -0.027699759 28.762215
0.044505865 -0.05 -0.027021743 28.757187
0.042642902 -0.05 -0.026337579 28.744765
0.040812819 -0.05 -0.025646983 28.724689
0.039015423 -0.05 -0.024949753 28.694506
0.037250523 -0.05 -0.024245731 28.651638
0.035517996 -0.05 -0.023534625 28.59953
0.033817756 -0.05 -0.022816125 28.540907
0.032149739 -0.05 -0.022089914 28.472023
0.030513907 -0.05 -0.021355672 28.390097
0.028910266 -0.05 -0.020613049 28.298287
0.027338891 -0.05 -0.019861613 28.193992
0.025799867 -0.05 -0.019100988 28.076981
0.024293363 -0.05 -0.018330694 27.948348
0.022819608 -0.05 -0.017550223 27.80552
0.021378887 -0.05 -0.016759078 27.649664
0.019971605 -0.05 -0.015956644 27.479522
0.018598193 -0.05 -0.015142369 27.290289
0.017259254 -0.05 -0.014315551 27.0824
0.015955479 -0.05 -0.013475459 26.845824
0.014687649 -0.05 -0.01262138 26.58241
0.013456741 -0.05 -0.011752504 26.282506
0.012263916 -0.05 -0.010868017 25.944108
0.011110526 -0.05 -0.0099670786 25.562031
0.0099981588 -0.05 -0.0090487511 25.133618
0.0089286019 -0.05 -0.0081120487 24.638999
0.0079039497 -0.05 -0.0071561932 24.066351
0.0069267211 -0.05 -0.0061804384 23.399903
0.0059996858 -0.05 -0.0051837977 22.624078
0.0051259263 -0.05 -0.0041656545 21.710292
0.0043091786 -0.05 -0.0031259782 20.635782
0.0035533239 -0.05 -0.0020645314 19.359277
0.002862441 -0.05 -0.00098163679 17.824442
0.0022412188 -0.05 0.00012121914 15.980908
0.0016941763 -0.05 0.001242402 13.74521
0.0012255633 -0.05 0.0023792616 10.905236
0.0008391612 -0.05 0.0035276249 7.9523563
0.00053789299 -0.05 0.0046829858 4.1685853
0.00032332316 -0.05 0.0058399806 5.2725321
0.0001953216 -0.05 0.0069925524 8.8303931
0.00015217894 -0.05 0.0081346924 12.058993
0.99642537 -0.05 -0.026448461 2.8909909
0.9901848 -0.05 -0.0271275 1.7566394
0.98394346 -0.05 -0.027799521 1.3161645
0.97770137 -0.05 -0.028464551 0.5422979
0.97145856 -0.05 -0.029122697 0.66790337
0.96521504 -0.05 -0.029774118 1.0699332
0.95897082 -0.05 -0.030418798 1.2457595
0.95272592 -0.05 -0.031056801 1.4685123
0.94648035 -0.05 -0.031688281 1.6648337
0.94023414 -0.05 -0.032313326 1.8594364
0.93398728 -0.05 -0.032931939 2.0474627
0.9277398 -0.05 -0.03354418 2.2265906
0.92149169 -0.05 -0.034150129 2.3989294
0.915243 -0.05 -0.034749819 2.5648058
0.90899371 -0.05 -0.035343402 2.7266316
0.90274385 -0.05 -0.035930877 2.8826945
0.89649342 -0.05 -0.036512274 3.0329465
0.89024244 -0.05 -0.037087731 3.1800905
0.88399092 -0.05 -0.037657262 3.3243541
0.87773886 -0.05 -0.03822081 3.464662
0.87148627 -0.05 -0.038778513 3.6019458
0.86523317 -0.05 -0.039330439 3.7376506
0.85897956 -0.05 -0.039876561 3.8710488
0.85272545 -0.05 -0.040416966 4.0027752
0.84647085 -0.05 -0.040951715 4.1344047
0.84021579 -0.05 -0.041480796 4.2707968
0.83396023 -0.05 -0.042004172 4.4081354
0.82770421 -0.05 -0.04252202 4.5447018
0.82144774 -0.05 -0.0430343 4.6805997
0.81519081 -0.05 -0.043540965 4.8146592
0.80893344 -0.05 -0.044042095 4.948664
0.80267562 -0.05 -0.0445377 5.0816494
0.79641736 -0.05 -0.045027812 5.2147636
0.79015869 -0.05 -0.045512385 5.3469942
0.78389959 -0.05 -0.045991508 5.4795376
0.77764008 -0.05 -0.046465144 5.6123256
0.77138014 -0.05 -0.046933263 5.7446492
0.7651198 -0.05 -0.047395925 5.8777679
0.75885905 -0.05 -0.047853117 6.0112915
0.75259791 -0.05 -0.048304828 6.1454675
0.74633638 -0.05 -0.048751031 6.2801843
0.74007446 -0.05 -0.04919171 6.4156459
0.73381215 -0.05 -0.049626851 6.5520664
0.72754945 -0.05 -0.050056419 6.6891582
0.72128638 -0.05 -0.050480446 6.8271256
0.71502294 -0.05 -0.050898965 6.9670222
0.70875912 -0.05 -0.051311797 7.1076802
0.70249492 -0.05 -0.051718996 7.2495695
0.69623037 -0.05 -0.052120527 7.3937443
0.68996545 -0.05 -0.052516296 7.538256
0.68370017 -0.05 -0.052906362 7.6853864
0.67743453 -0.05 -0.053290625 7.8341069
0.67116853 -0.05 -0.053669095 7.9850734
0.66490219 -0.05 -0.054041657 8.1380425
0.65863549 -0.05 -0.054408209 8.2917569
0.65236844 -0.05 -0.054768838 8.4481129
0.64610106 -0.05 -0.055123457 8.6072496
0.63983332 -0.05 -0.055471898 8.7679916
0.63356525 -0.05 -0.05581413 8.9307693
0.62729684 -0.05 -0.056150155 9.0966449
0.6210281 -0.05 -0.056479837 9.2662972
0.61475902 -0.05 -0.056803089 9.4417384
0.6084896 -0.05 -0.057119908 9.6290155
0.60221986 -0.05 -0.057430151 9.8309403
0.5959498 -0.05 -0.057733745 10.042196
0.58967941 -0.05 -0.058030607 10.255735
0.5834087 -0.05 -0.058320646 10.46898
0.57713767 -0.05 -0.058603744 10.682595
0.57086633 -0.05 -0.058879759 10.896168
0.56459469 -0.05 -0.059148659 11.111307
0.55832274 -0.05 -0.059410319 11.328133
0.55205047 -0.05 -0.059664579 11.544628
0.54577791 -0.05 -0.059911368 11.763508
0.53950506 -0.05 -0.060150523 11.985
0.53323192 -0.05 -0.060381905 12.208373
0.52695848 -0.05 -0.060605442 12.434842
0.52068478 -0.05 -0.060820964 12.663831
0.51441079 -0.05 -0.061028327 12.89532
0.50813654 -0.05 -0.061227366 13.129404
0.50186202 -0.05 -0.061417941 13.366223
0.49558725 -0.05 -0.061599928 13.606366
0.48931223 -0.05 -0.061773133 13.848923
0.48303697 -0.05 -0.06193735 14.093742
0.47676147 -0.05 -0.062092455 14.341092
0.47048575 -0.05 -0.062238311 14.591729
0.46420983 -0.05 -0.062374667 14.845021
0.4579337 -0.05 -0.062501308 15.100931
0.45165738 -0.05 -0.062618073 15.359463
0.44538087 -0.05 -0.06272478 15.620794
0.43910419 -0.05 -0.062821202 15.884606
0.43282738 -0.05 -0.062907098 16.15071
0.42655042 -0.05 -0.062982259 16.419362
0.42027334 -0.05 -0.063046488 16.691205
0.41399615 -0.05 -0.063099533 16.965646
0.40771888 -0.05 -0.06314112 17.242295
0.40144154 -0.05 -0.063171022 17.521469
0.39516416 -0.05 -0.063188955 17.803092
0.38888675 -0.05 -0.063194611 18.086197
0.38260935 -0.05 -0.063187777 18.372259
0.37633197 -0.05 -0.063168211 18.661442
0.37005465 -0.05 -0.063135515 18.95248
0.36377741 -0.05 -0.063089371 19.244629
0.35750029 -0.05 -0.063029536 19.53943
0.35122332 -0.05 -0.062955677 19.836785
0.34494653 -0.05 -0.062867437 20.136457
0.33866996 -0.05 -0.062764431 20.436707
0.33239367 -0.05 -0.062646328 20.738555
0.32611768 -0.05 -0.062512741 21.042591
0.31984206 -0.05 -0.062363246 21.347201
0.31356684 -0.05 -0.062197455 21.651784
0.30729208 -0.05 -0.062014956 21.963959
0.30101786 -0.05 -0.061815314 22.467429
0.29922108 -0.05 0.058325934 23.007357
0.29358681 -0.05 0.058508741 22.958659
0.28803318 -0.05 0.058674354 22.748704
0.28255909 -0.05 0.058823024 22.550154
0.27716343 -0.05 0.058955056 22.358502
0.2718451 -0.05 0.059070786 22.174825
0.26660303 -0.05 0.059170527 21.998523
0.26143617 -0.05 0.05925456 21.829282
0.25634347 -0.05 0.059323211 21.667263
0.25132392 -0.05 0.059376763 21.512519
0.24637648 -0.05 0.059415435 21.36399
0.24150019 -0.05 0.059439541 21.221529
0.23669403 -0.05 0.059449359 21.084021
0.23195705 -0.05 0.059445186 20.951039
0.22728828 -0.05 0.0594273 20.824221
0.2226868 -0.05 0.059395905 20.702873
0.21815167 -0.05 0.059351299 20.587153
0.21368198 -0.05 0.059293738 20.477871
0.20927682 -0.05 0.059223386 20.373292
0.20493531 -0.05 0.05914054 20.273922
0.20065658 -0.05 0.059045446 20.179866
0.19643976 -0.05 0.058938364 20.091166
0.192284 -0.05 0.05881953 20.008577
0.18818845 -0.05 0.058689056 19.930454
0.18415231 -0.05 0.058547226 19.856981
0.18017475 -0.05 0.058394259 19.788922
0.17625498 -0.05 0.058230345 19.724615
0.1723922 -0.05 0.05805572 19.665446
0.16858563 -0.05 0.057870573 19.61041
0.16483452 -0.05 0.057675069 19.559899
0.1611381 -0.05 0.057469366 19.512485
0.15749563 -0.05 0.057253714 19.469223
0.15390639 -0.05 0.057028255 19.430472
0.15036964 -0.05 0.056793154 19.395548
0.14688469 -0.05 0.056548588 19.365355
0.14345083 -0.05 0.056294675 19.33839
0.14006736 -0.05 0.056031597 19.31495
0.13673363 -0.05 0.055759494 19.295122
0.13344895 -0.05 0.055478559 19.278813
0.13021267 -0.05 0.055188925 19.266804
0.12702415 -0.05 0.054890641 19.256825
0.12388275 -0.05 0.054583912 19.249712
0.12078782 -0.05 0.054268881 19.246893
0.11773878 -0.05 0.053945586 19.246695
0.11473502 -0.05 0.05361412 19.249061
0.11177594 -0.05 0.053274636 19.253944
0.10886096 -0.05 0.052927187 19.261819
0.1059895 -0.05 0.052571884 19.27126
0.10316099 -0.05 0.052208904 19.285072
0.10037488 -0.05 0.051838205 19.30171
0.097630635 -0.05 0.051459861 19.319904
0.09492771 -0.05 0.051074031 19.342802
0.092265599 -0.05 0.05068065 19.368527
0.089643781 -0.05 0.050279797 19.393721
0.087061752 -0.05 0.049871556 19.422079
0.084519016 -0.05 0.04945597 19.450384
0.082015088 -0.05 0.049033093 19.482073
0.079549516 -0.05 0.048602838 19.513905
0.077121843 -0.05 0.048165209 19.546732
0.074731606 -0.05 0.047720292 19.582304
0.072378359 -0.05 0.047268121 19.622837
0.070061695 -0.05 0.046808594 19.666801
0.0677812 -0.05 0.046341685 19.712205
0.065536466 -0.05 0.045867401 19.760004
0.063327111 -0.05 0.04538566 19.808927
0.061152764 -0.05 0.04489639 19.858204
0.05901306 -0.05 0.044399539 19.908598
0.056907656 -0.05 0.043895014 19.961113
0.0548362 -0.05 0.043382792 20.015157
0.052798396 -0.05 0.042862692 20.072473
0.050793949 -0.05 0.042334571 20.127013
0.048822555 -0.05 0.041798372 20.186407
0.046883953 -0.05 0.041253919 20.248151
0.044977903 -0.05 0.040701032 20.317371
0.043104206 -0.05 0.040139442 20.393128
0.041262654 -0.05 0.039568959 20.472308
0.039453047 -0.05 0.038989439 20.553851
0.037675243 -0.05 0.038400601 20.637358
0.035929132 -0.05 0.037802139 20.719605
0.03421463 -0.05 0.037193743 20.807496
0.032531675 -0.05 0.036575098 20.902016
0.030880251 -0.05 0.03594585 21.002387
0.029260402 -0.05 0.035305567 21.102644
0.027672186 -0.05 0.034653866 21.21054
0.026115737 -0.05 0.033990256 21.332161
0.024591252 -0.05 0.033314217 21.474375
0.023098976 -0.05 0.032625229 21.62136
0.021639274 -0.05 0.031922655 21.74979
0.020212535 -0.05 0.031205911 21.849786
0.018819314 -0.05 0.030474256 21.917282
0.017460247 -0.05 0.029726913 21.948627
0.016136065 -0.05 0.028963114 21.99913
0.014847688 -0.05 0.028181987 22.096225
0.013596213 -0.05 0.027382638 22.256503
0.012382933 -0.05 0.026564132 22.523558
0.011209367 -0.05 0.025725424 22.917278
0.010077229 -0.05 0.024865409 23.425933
0.008988555 -0.05 0.023983162 24.083783
0.0079458046 -0.05 0.023077765 24.878114
0.0069516726 -0.05 0.022148039 25.673815
0.0060091913 -0.05 0.021193156 26.343981
0.0051220853 -0.05 0.020212827 26.851306
0.0042942102 -0.05 0.019206543 27.115399
0.0035296571 -0.05 0.018174342 27.11979
0.0028332069 -0.05 0.017117382 26.861167
0.0022094816 -0.05 0.016036978 26.287609
0.001662905 -0.05 0.014935478 25.371182
0.0011975397 -0.05 0.013816782 24.073161
0.00081661503 -0.05 0.012685182 22.402594
0.00052206498 -0.05 0.01154592 20.367226
0.00031418117 -0.05 0.010405048 17.945817
0.00019167642 -0.05 0.0092686771 15.181438
0.99645668 -0.05 -0.025549654 55.106593
0.99027848 -0.05 -0.024438061 45.384228
0.98409902 -0.05 -0.023333415 45.349077
0.97791833 -0.05 -0.022235691 45.538963
0.97173643 -0.05 -0.021144784 45.634292
0.96555337 -0.05 -0.020060536 45.707154
0.95936914 -0.05 -0.018982964 45.751038
0.95318376 -0.05 -0.017912006 45.770873
0.94699727 -0.05 -0.016847509 45.772642
0.94080967 -0.05 -0.015789387 45.756803
0.934621 -0.05 -0.014737636 45.727694
0.92843126 -0.05 -0.013692196 45.685292
0.92224046 -0.05 -0.012652992 45.634817
0.91604862 -0.05 -0.01161999 45.574815
0.90985578 -0.05 -0.01059304 45.506975
0.90366194 -0.05 -0.0095721423 45.427843
0.89746712 -0.05 -0.0085572678 45.338995
0.89127132 -0.05 -0.0075482811 45.238968
0.88507457 -0.05 -0.0065451685 45.128664
0.87887687 -0.05 -0.0055479866 45.006772
0.87267825 -0.05 -0.0045565989 44.877571
0.8664787 -0.05 -0.0035709379 44.742805
0.86027824 -0.05 -0.0025910322 44.605164
0.85407689 -0.05 -0.0016167959 44.464826
0.84787466 -0.05 -0.0006481668 44.32429
0.84167156 -0.05 0.00031484121 44.182287
0.83546758 -0.05 0.0012721919 44.039268
0.82926274 -0.05 0.0022240597 43.893736
0.82305708 -0.05 0.0031704044 43.745035
0.81685057 -0.05 0.0041111798 43.589798
0.81064322 -0.05 0.0050464647 43.426942
0.80443505 -0.05 0.0059762685 43.253632
0.79822606 -0.05 0.0069006227 43.071507
0.79201627 -0.05 0.0078194821 42.881722
0.78580568 -0.05 0.0087329328 42.688455
0.77959428 -0.05 0.0096409398 42.493132
0.77338209 -0.05 0.010543471 42.296604
0.76716911 -0.05 0.011440587 42.099156
0.76095535 -0.05 0.012332274 41.901311
0.75474082 -0.05 0.013218522 41.702029
0.74852551 -0.05 0.014099302 41.501544
0.74230941 -0.05 0.014974599 41.297503
0.73609255 -0.05 0.015844399 41.087433
0.72987493 -0.05 0.016708664 40.867525
0.72365654 -0.05 0.01756743 40.634854
0.71743739 -0.05 0.018420725 40.388293
0.71121747 -0.05 0.019268375 40.13027
0.70499679 -0.05 0.02011043 39.867782
0.69877535 -0.05 0.020946858 39.606463
0.69255316 -0.05 0.021777563 39.345423
0.6863302 -0.05 0.022602602 39.085748
0.68010648 -0.05 0.023421878 38.827361
0.67388201 -0.05 0.024235399 38.571155
0.66765677 -0.05 0.025043051 38.315468
0.66143076 -0.05 0.025844734 38.056964
0.65520399 -0.05 0.026640531 37.791177
0.64897646 -0.05 0.027430356 37.510892
0.64274817 -0.05 0.028214043 37.209444
0.63651909 -0.05 0.028991559 36.889185
0.63028925 -0.05 0.029762907 36.563113
0.62405864 -0.05 0.03052795 36.235735
0.61782724 -0.05 0.031286602 35.906863
0.61159506 -0.05 0.032038861 35.577585
0.6053621 -0.05 0.032784582 35.248016
0.59912835 -0.05 0.033523692 34.919269
0.59289382 -0.05 0.034256109 34.592012
0.58665849 -0.05 0.034981742 34.268418
0.58042236 -0.05 0.035700474 33.944509
0.57418542 -0.05 0.036412161 33.620656
0.56794768 -0.05 0.037116771 33.298001
0.56170913 -0.05 0.037814181 32.976014
0.55546976 -0.05 0.03850423 32.653801
0.54922958 -0.05 0.039186846 32.331656
0.54298856 -0.05 0.039861867 32.009094
0.53674672 -0.05 0.040529154 31.686086
0.53050405 -0.05 0.041188637 31.362374
0.52426053 -0.05 0.041840141 31.039878
0.51801619 -0.05 0.042483527 30.722178
0.51177098 -0.05 0.043118627 30.411903
0.50552493 -0.05 0.043745302 30.102782
0.49927803 -0.05 0.044363429 29.803305
0.49303026 -0.05 0.04497281 29.511268
0.48678163 -0.05 0.045573242 29.22784
0.48053214 -0.05 0.046164601 28.954058
0.47428178 -0.05 0.046746749 28.690846
0.46803055 -0.05 0.047319435 28.436589
0.46177843 -0.05 0.047882444 28.189043
0.45552545 -0.05 0.048435614 27.947093
0.44927159 -0.05 0.048978762 27.710494
0.44301683 -0.05 0.049511661 27.478614
0.4367612 -0.05 0.050034072 27.25124
0.43050468 -0.05 0.050545782 27.028061
0.42424728 -0.05 0.051046595 26.809637
0.417989 -0.05 0.05153626 26.595554
0.41172982 -0.05 0.0520145 26.385508
0.40546979 -0.05 0.052481088 26.179412
0.39920886 -0.05 0.052935739 25.977508
0.39294706 -0.05 0.053378145 25.778853
0.3866844 -0.05 0.053808089 25.584251
0.38042087 -0.05 0.054225331 25.39397
0.37415648 -0.05 0.054629472 25.207505
0.36789125 -0.05 0.055020191 25.023997
0.36162518 -0.05 0.055397245 24.844456
0.35535828 -0.05 0.055760297 24.66886
0.34909056 -0.05 0.056108991 24.497314
0.34282204 -0.05 0.056442938 24.329136
0.33655273 -0.05 0.056761808 24.164848
0.33028267 -0.05 0.057065208 24.004254
0.32401184 -0.05 0.057352715 23.847136
0.3177403 -0.05 0.057623937 23.694944
0.31146806 -0.05 0.057878458 23.550571
0.30519514 -0.05 0.058115842 23.216025
