# p  FACE_DATA 448
# x y z  p
0.29963536 -0.05 -0.057973785 99450.925
0.29400253 -0.05 -0.058196728 99444.147
0.28845023 -0.05 -0.058401903 99436.766
0.28297734 -0.05 -0.058589568 99429.667
0.27758275 -0.05 -0.058760038 99422.627
0.27226538 -0.05 -0.058913655 99415.748
0.26702416 -0.05 -0.059050739 99408.929
0.26185803 -0.05 -0.059171581 99402.277
0.25676595 -0.05 -0.059276513 99395.596
0.2517469 -0.05 -0.059365824 99389.106
0.24679988 -0.05 -0.059439743 99382.721
0.24192387 -0.05 -0.059498588 99376.476
0.2371179 -0.05 -0.059542647 99370.297
0.23238101 -0.05 -0.059572222 99364.16
0.22771225 -0.05 -0.059587598 99358.142
0.22311066 -0.05 -0.059588986 99352.313
0.21857532 -0.05 -0.059576692 99346.431
0.21410533 -0.05 -0.059550976 99340.764
0.20969978 -0.05 -0.05951201 99335.238
0.20535779 -0.05 -0.059460097 99329.775
0.20107849 -0.05 -0.059395488 99324.442
0.19686101 -0.05 -0.059318451 99319.071
0.1927045 -0.05 -0.059229227 99313.844
0.18860813 -0.05 -0.059127934 99308.843
0.18457108 -0.05 -0.059014863 99303.816
0.18059255 -0.05 -0.058890238 99299.009
0.17667171 -0.05 -0.058754254 99294.213
0.17280778 -0.05 -0.058607153 99289.559
0.16899999 -0.05 -0.05844913 99284.931
0.16524757 -0.05 -0.058280356 99280.497
0.16154979 -0.05 -0.058100992 99276.123
0.15790588 -0.05 -0.057911296 99271.776
0.15431512 -0.05 -0.057711414 99267.634
0.15077679 -0.05 -0.057501516 99263.51
0.14729018 -0.05 -0.057281785 99259.534
0.1438546 -0.05 -0.057052342 99255.668
0.14046934 -0.05 -0.056813375 99251.905
0.13713376 -0.05 -0.056565029 99248.324
0.13384716 -0.05 -0.056307503 99244.707
0.1306089 -0.05 -0.056040933 99241.313
0.12741833 -0.05 -0.055765372 99238.094
0.12427481 -0.05 -0.055481032 99234.822
0.12117773 -0.05 -0.055188059 99231.685
0.11812647 -0.05 -0.054886494 99228.741
0.11512042 -0.05 -0.054576437 99225.936
0.112159 -0.05 -0.054258043 99223.195
0.10924161 -0.05 -0.05393137 99220.778
0.1063677 -0.05 -0.053596533 99218.306
0.10353667 -0.05 -0.053253713 99215.896
0.10074799 -0.05 -0.052902874 99213.85
0.09800112 -0.05 -0.05254409 99211.777
0.095295515 -0.05 -0.052177526 99209.758
0.092630669 -0.05 -0.051803121 99208.127
0.090006063 -0.05 -0.051420958 99206.435
0.08742119 -0.05 -0.051031122 99205.061
0.084875557 -0.05 -0.050633661 99203.597
0.08236868 -0.05 -0.050228634 99202.395
0.079900106 -0.05 -0.049815955 99201.543
0.077469377 -0.05 -0.049395633 99200.951
0.075076031 -0.05 -0.048967757 99200.396
0.072719622 -0.05 -0.048532363 99200.031
0.070399743 -0.05 -0.048089353 99200.001
0.06811598 -0.05 -0.047638703 99200.113
0.065867924 -0.05 -0.047180422 99200.593
0.063655192 -0.05 -0.046714434 99201.358
0.061477415 -0.05 -0.046240667 99202.461
0.059334226 -0.05 -0.045759072 99203.916
0.05722528 -0.05 -0.045269561 99205.729
0.055150228 -0.05 -0.044772109 99207.676
0.05310877 -0.05 -0.04426654 99210.391
0.051100611 -0.05 -0.043752713 99213.307
0.049125446 -0.05 -0.043230572 99216.654
0.047183015 -0.05 -0.042699944 99220.322
0.045273076 -0.05 -0.042160651 99224.649
0.043395425 -0.05 -0.041612424 99229.805
0.041549855 -0.05 -0.041055075 99235.577
0.039736165 -0.05 -0.040488463 99241.988
0.037954212 -0.05 -0.039912305 99249.334
0.036203881 -0.05 -0.039326299 99257.527
0.034485087 -0.05 -0.038730132 99266.809
0.032797769 -0.05 -0.038123493 99277.045
0.031141904 -0.05 -0.037506026 99288.606
0.029517534 -0.05 -0.0368773 99301.523
0.027924714 -0.05 -0.036236931 99315.797
0.026363578 -0.05 -0.035584427 99331.771
0.024834315 -0.05 -0.034919265 99349.484
0.023337169 -0.05 -0.034240926 99369.282
0.021872498 -0.05 -0.033548769 99391.519
0.02044069 -0.05 -0.032842208 99416.141
0.019042291 -0.05 -0.032120498 99444.205
0.017677934 -0.05 -0.031382856 99475.577
0.016348344 -0.05 -0.030628511 99511.162
0.015054434 -0.05 -0.029856583 99551.131
0.013797296 -0.05 -0.02906617 99596.25
0.012578216 -0.05 -0.028256327 99646.718
0.011398704 -0.05 -0.027426003 99703.35
0.010260468 -0.05 -0.026574074 99766.051
0.0091655363 -0.05 -0.025699607 99835.948
0.0081163619 -0.05 -0.024801661 99915.867
0.0071156316 -0.05 -0.023879042 100006.26
0.0061663712 -0.05 -0.022930898 100105.6
0.0052723035 -0.05 -0.021956913 100216.65
0.0044372802 -0.05 -0.020956553 100338.75
0.0036653927 -0.05 -0.019929825 100470.81
0.0029614301 -0.05 -0.018877853 100611.61
0.0023300234 -0.05 -0.017801919 100758.99
0.0017756132 -0.05 -0.016704342 100908.72
0.0013022897 -0.05 -0.01558899 101055.57
0.00091331278 -0.05 -0.014460133 101194.25
0.00061065371 -0.05 -0.013322999 101317.85
0.00039464718 -0.05 -0.012183636 101420.1
0.00026404962 -0.05 -0.011048167 101498.89
0.99625571 -0.05 0.030867034 100038.69
0.99008558 -0.05 0.029711453 100039.57
0.98391415 -0.05 0.028562811 100034.06
0.97774144 -0.05 0.027421082 100034.78
0.97156748 -0.05 0.02628616 100032.33
0.9653923 -0.05 0.025157889 100031.47
0.9592159 -0.05 0.024036286 100029.87
0.95303831 -0.05 0.022921288 100028.65
0.94685955 -0.05 0.021812742 100027.24
0.94067965 -0.05 0.020710565 100025.93
0.93449863 -0.05 0.01961475 100024.55
0.92831649 -0.05 0.018525239 100023.21
0.92213325 -0.05 0.017441956 100021.82
0.91594893 -0.05 0.016364867 100020.45
0.90976356 -0.05 0.015293822 100019.03
0.90357715 -0.05 0.014228824 100017.61
0.89738972 -0.05 0.013169842 100016.15
0.89120128 -0.05 0.012116739 100014.67
0.88501184 -0.05 0.011069505 100013.14
0.87882139 -0.05 0.010028193 100011.6
0.87262998 -0.05 0.0089926692 100009.99
0.86643761 -0.05 0.0079628653 100008.37
0.86024429 -0.05 0.0069388102 100006.7
0.85405004 -0.05 0.0059204179 100004.99
0.84785486 -0.05 0.0049076264 100003.22
0.84165878 -0.05 0.0039004497 100001.41
0.83546178 -0.05 0.0028989239 99999.527
0.82926389 -0.05 0.0019028749 99997.59
0.82306513 -0.05 0.00091234265 99995.58
0.81686547 -0.05 -7.262622e-05 99993.5
0.81066495 -0.05 -0.0010521108 99991.337
0.80446355 -0.05 -0.0020261203 99989.09
0.79826131 -0.05 -0.0029946862 99986.732
0.79205822 -0.05 -0.003957763 99984.29
0.7858543 -0.05 -0.0049154371 99981.724
0.77964953 -0.05 -0.0058676729 99979.068
0.77344393 -0.05 -0.0068144393 99976.272
0.7672375 -0.05 -0.0077557964 99973.37
0.76103025 -0.05 -0.0086917302 99970.333
0.75482218 -0.05 -0.0096222296 99967.172
0.74861331 -0.05 -0.010547267 99963.849
0.74240361 -0.05 -0.011466828 99960.392
0.73619311 -0.05 -0.012380896 99956.779
0.72998179 -0.05 -0.013289437 99953.03
0.72376968 -0.05 -0.014192483 99949.089
0.71755677 -0.05 -0.015090064 99944.981
0.71134304 -0.05 -0.015982006 99940.712
0.70512852 -0.05 -0.016868358 99936.239
0.6989132 -0.05 -0.017749088 99931.586
0.69269707 -0.05 -0.0186241 99926.737
0.68648015 -0.05 -0.019493454 99921.692
0.68026243 -0.05 -0.020357049 99916.467
0.67404391 -0.05 -0.021214895 99911.005
0.66782458 -0.05 -0.022066878 99905.401
0.66160444 -0.05 -0.022912896 99899.601
0.6553835 -0.05 -0.023753035 99893.608
0.64916176 -0.05 -0.024587207 99887.407
0.64293921 -0.05 -0.025415247 99881.058
0.63671583 -0.05 -0.026237122 99874.534
0.63049164 -0.05 -0.027052833 99867.855
0.62426663 -0.05 -0.027862246 99861.033
0.61804079 -0.05 -0.028665273 99854.048
0.61181414 -0.05 -0.029461913 99846.93
0.60558665 -0.05 -0.030252021 99839.733
0.59935833 -0.05 -0.031035524 99832.423
0.59312917 -0.05 -0.03181234 99825.06
0.58689916 -0.05 -0.032582377 99817.567
0.58066831 -0.05 -0.033345519 99810.03
0.5744366 -0.05 -0.034101622 99802.42
0.56820404 -0.05 -0.034850654 99794.76
0.56197062 -0.05 -0.035592492 99787.084
0.55573632 -0.05 -0.036326975 99779.359
0.54950116 -0.05 -0.037054031 99771.538
0.54326511 -0.05 -0.037773499 99763.724
0.53702819 -0.05 -0.038485238 99755.87
0.53079037 -0.05 -0.039189179 99748.012
0.52455166 -0.05 -0.039885148 99740.157
0.51831205 -0.05 -0.040573005 99732.257
0.51207153 -0.05 -0.041252581 99724.35
0.5058301 -0.05 -0.04192374 99716.375
0.49958776 -0.05 -0.042586355 99708.421
0.4933445 -0.05 -0.043240233 99700.489
0.48710031 -0.05 -0.043885168 99692.609
0.48085519 -0.05 -0.044521036 99684.662
0.47460913 -0.05 -0.045147698 99676.656
0.46836214 -0.05 -0.045764905 99668.655
0.46211419 -0.05 -0.046372442 99660.671
0.45586531 -0.05 -0.046970147 99652.706
0.44961547 -0.05 -0.047557836 99644.761
0.44336467 -0.05 -0.048135283 99636.801
0.43711292 -0.05 -0.048702248 99628.81
0.43086021 -0.05 -0.04925852 99620.776
0.42460653 -0.05 -0.049803899 99612.724
0.41835189 -0.05 -0.050338138 99604.7
0.41209629 -0.05 -0.050860958 99596.715
0.40583973 -0.05 -0.051372133 99588.7
0.39958221 -0.05 -0.051871377 99580.703
0.39332372 -0.05 -0.052358384 99572.668
0.38706428 -0.05 -0.052832935 99564.569
0.38080389 -0.05 -0.053294789 99556.425
0.37454253 -0.05 -0.053743549 99548.384
0.36828024 -0.05 -0.054178894 99540.351
0.36201701 -0.05 -0.054600581 99532.316
0.35575285 -0.05 -0.055008271 99524.209
0.34948778 -0.05 -0.05540161 99516.065
0.34322181 -0.05 -0.055780208 99507.926
0.33695493 -0.05 -0.056143734 99499.739
0.33068718 -0.05 -0.056491797 99491.661
0.32441857 -0.05 -0.056823972 99483.615
0.31814912 -0.05 -0.057139868 99475.404
0.31187885 -0.05 -0.057439068 99466.894
0.30560778 -0.05 -0.057721137 99459.701
0.29460358 -0.05 0.061928583 99506.123
0.28897188 -0.05 0.061678804 99502.196
0.28342191 -0.05 0.061418064 99499.446
0.27795254 -0.05 0.06114653 99496.621
0.27256263 -0.05 0.060864422 99493.954
0.26725109 -0.05 0.060571989 99491.417
0.26201681 -0.05 0.060269463 99488.965
0.25685872 -0.05 0.059957042 99486.698
0.25177575 -0.05 0.059634971 99484.449
0.24676687 -0.05 0.059303453 99482.394
0.24183104 -0.05 0.058962631 99480.451
0.23696725 -0.05 0.05861274 99478.654
0.23217449 -0.05 0.058253983 99476.977
0.22745178 -0.05 0.057886579 99475.381
0.22279814 -0.05 0.057510734 99473.903
0.21821261 -0.05 0.057126579 99472.625
0.21369425 -0.05 0.056734341 99471.368
0.20924214 -0.05 0.056334203 99470.301
0.20485534 -0.05 0.055926261 99469.386
0.20053297 -0.05 0.055510742 99468.577
0.19627413 -0.05 0.055087824 99467.949
0.19207792 -0.05 0.054657702 99467.355
0.18794351 -0.05 0.054220544 99466.931
0.18387003 -0.05 0.053776398 99466.717
0.17985665 -0.05 0.053325484 99466.531
0.17590254 -0.05 0.05286796 99466.576
0.17200687 -0.05 0.052403951 99466.681
0.16816886 -0.05 0.051933634 99466.967
0.1643877 -0.05 0.051457136 99467.357
0.16066262 -0.05 0.050974564 99467.992
0.15699287 -0.05 0.050486016 99468.772
0.15337766 -0.05 0.049991687 99469.645
0.14981627 -0.05 0.04949166 99470.721
0.14630797 -0.05 0.048986046 99471.848
0.14285203 -0.05 0.048474965 99473.164
0.13944774 -0.05 0.047958483 99474.658
0.13609442 -0.05 0.047436728 99476.348
0.13279137 -0.05 0.046909788 99478.258
0.12953791 -0.05 0.046377803 99480.236
0.12633336 -0.05 0.045840856 99482.486
0.1231771 -0.05 0.045298947 99484.954
0.12006846 -0.05 0.044752232 99487.43
0.11700682 -0.05 0.044200803 99490.086
0.11399154 -0.05 0.043644652 99493.001
0.11102204 -0.05 0.043083827 99496.17
0.10809771 -0.05 0.042518433 99499.505
0.10521795 -0.05 0.041948479 99503.222
0.1023822 -0.05 0.041374033 99507.008
0.099589844 -0.05 0.040795224 99510.944
0.096840365 -0.05 0.040211972 99515.212
0.094133214 -0.05 0.039624306 99519.556
0.091467834 -0.05 0.039032347 99524.139
0.088843726 -0.05 0.038435987 99529.233
0.086260367 -0.05 0.037835267 99534.493
0.083717245 -0.05 0.037230233 99540.216
0.081213864 -0.05 0.036620886 99546.022
0.078749736 -0.05 0.036007248 99552.086
0.076324417 -0.05 0.035389194 99558.464
0.073937451 -0.05 0.034766694 99565.227
0.071588368 -0.05 0.034139799 99572.281
0.069276724 -0.05 0.033508507 99579.726
0.067002119 -0.05 0.032872686 99587.72
0.064764143 -0.05 0.032232278 99596.07
0.062562387 -0.05 0.031587258 99604.748
0.060396478 -0.05 0.030937517 99613.839
0.058266052 -0.05 0.030282955 99623.352
0.056170747 -0.05 0.029623488 99633.398
0.05411023 -0.05 0.028959002 99644.088
0.052084152 -0.05 0.028289444 99655.273
0.05009223 -0.05 0.027614612 99667.42
0.048134183 -0.05 0.026934341 99680.017
0.04620971 -0.05 0.026248549 99693.061
0.044318567 -0.05 0.025557043 99706.473
0.042460526 -0.05 0.024859623 99720.85
0.040635409 -0.05 0.024156007 99736.444
0.038843026 -0.05 0.023445989 99753.124
0.037083186 -0.05 0.022729411 99770.694
0.03535577 -0.05 0.022005981 99789.066
0.033660692 -0.05 0.021275386 99808.19
0.031997891 -0.05 0.020537309 99828.719
0.030367331 -0.05 0.019791432 99850.832
0.028769022 -0.05 0.019037402 99874.742
0.02720304 -0.05 0.018274791 99900.264
0.025669474 -0.05 0.01750322 99927.317
0.024168496 -0.05 0.016722212 99955.984
0.02270034 -0.05 0.015931262 99986.27
0.021265291 -0.05 0.015129872 100018.8
0.019863762 -0.05 0.014317433 100054.08
0.018496186 -0.05 0.013493395 100091.84
0.017163171 -0.05 0.012657059 100132.75
0.015865413 -0.05 0.011807699 100176.53
0.014603701 -0.05 0.010944609 100224.01
0.013379016 -0.05 0.010066986 100276.06
0.012192522 -0.05 0.0091740238 100333.43
0.011045579 -0.05 0.0082648904 100395.29
0.0099397829 -0.05 0.0073386612 100461.11
0.0088769267 -0.05 0.0063943626 100531.54
0.0078591104 -0.05 0.0054312315 100607.2
0.0068888583 -0.05 0.0044485393 100688.93
0.005968947 -0.05 0.0034453193 100775.62
0.0051024632 -0.05 0.0024209769 100867.91
0.0042931433 -0.05 0.0013755083 100964.54
0.0035448699 -0.05 0.00030870349 101064.16
0.0028617195 -0.05 -0.00077908579 101164.95
0.0022483701 -0.05 -0.0018863395 101264.03
0.0017093293 -0.05 -0.0030113913 101357.51
0.0012488276 -0.05 -0.0041515606 101439.48
0.00087061665 -0.05 -0.0053026476 101507.09
0.00057758728 -0.05 -0.0064601256 101556.48
0.00037126574 -0.05 -0.0076186197 101581.08
0.00025147878 -0.05 -0.0087720742 101579.93
0.00021647423 -0.05 -0.0099144923 101552.81
0.996218 -0.05 0.031765596 100106.15
0.98997275 -0.05 0.032400157 100064.65
0.98372678 -0.05 0.033027695 100051.8
0.97748011 -0.05 0.033648237 100036.09
0.97123277 -0.05 0.03426189 100023.4
0.96498477 -0.05 0.034868814 100011.54
0.95873612 -0.05 0.035468992 100000.86
0.95248682 -0.05 0.036062487 99990.865
0.94623692 -0.05 0.036649457 99981.529
0.9399864 -0.05 0.037229985 99972.645
0.9337353 -0.05 0.037804077 99964.338
0.92748361 -0.05 0.038371793 99956.366
0.92123136 -0.05 0.038933212 99948.827
0.91497855 -0.05 0.039488369 99941.567
0.90872519 -0.05 0.040037415 99934.542
0.9024713 -0.05 0.040580348 99927.84
0.89621689 -0.05 0.041117201 99921.343
0.88996197 -0.05 0.04164811 99914.996
0.88370655 -0.05 0.042173088 99908.889
0.87745063 -0.05 0.042692079 99903.046
0.87119423 -0.05 0.043205222 99897.249
0.86493735 -0.05 0.043712586 99891.673
0.85868 -0.05 0.04421414 99886.243
0.85242221 -0.05 0.044709974 99880.901
0.84616396 -0.05 0.04520015 99875.63
0.83990528 -0.05 0.045684654 99870.526
0.83364615 -0.05 0.04616345 99865.577
0.8273866 -0.05 0.046636715 99860.528
0.82112664 -0.05 0.047104409 99855.729
0.81486626 -0.05 0.047566484 99850.931
0.80860548 -0.05 0.048023022 99846.265
0.80234428 -0.05 0.048474031 99841.58
0.7960827 -0.05 0.048919544 99837.003
0.78982073 -0.05 0.049359517 99832.495
0.78355837 -0.05 0.049794035 99827.954
0.77729564 -0.05 0.050223064 99823.55
0.77103253 -0.05 0.050646573 99819.153
0.76476906 -0.05 0.051064623 99814.788
0.75850522 -0.05 0.051477199 99810.437
0.75224102 -0.05 0.051884292 99806.116
0.74597647 -0.05 0.052285874 99801.846
0.73971156 -0.05 0.05268193 99797.608
0.73344631 -0.05 0.053072445 99793.395
0.72718072 -0.05 0.053457384 99789.232
0.72091478 -0.05 0.05383678 99785.017
0.71464852 -0.05 0.054210665 99780.784
0.70838191 -0.05 0.054578861 99776.702
0.70211498 -0.05 0.054941421 99772.448
0.69584772 -0.05 0.055298312 99768.352
0.68958014 -0.05 0.055649438 99764.171
0.68331224 -0.05 0.055994857 99760.016
0.67704402 -0.05 0.056334471 99755.858
0.67077548 -0.05 0.05666829 99751.627
0.66450665 -0.05 0.056996199 99747.51
0.65823749 -0.05 0.057318096 99743.397
0.65196804 -0.05 0.057634067 99739.192
0.64569828 -0.05 0.057944025 99735.022
0.63942823 -0.05 0.058247804 99730.901
0.63315787 -0.05 0.058545371 99726.762
0.62688722 -0.05 0.05883673 99722.571
0.62061629 -0.05 0.059121742 99718.462
0.61434506 -0.05 0.059400323 99714.305
0.60807355 -0.05 0.059672469 99710.12
0.60180176 -0.05 0.059938036 99705.982
0.5955297 -0.05 0.060196952 99701.789
0.58925735 -0.05 0.060449134 99697.626
0.58298473 -0.05 0.06069449 99693.395
0.57671185 -0.05 0.060932905 99689.224
0.57043871 -0.05 0.061164234 99685.044
0.5641653 -0.05 0.061388445 99680.815
0.55789164 -0.05 0.061605414 99676.604
0.55161773 -0.05 0.061814982 99672.405
0.54534358 -0.05 0.062017077 99668.141
0.53906918 -0.05 0.062211536 99663.952
0.53279455 -0.05 0.062398219 99659.719
0.52651968 -0.05 0.062577057 99655.481
0.5202446 -0.05 0.062747877 99651.244
0.51396929 -0.05 0.062910537 99646.989
0.50769378 -0.05 0.06306487 99642.776
0.50141806 -0.05 0.063210738 99638.525
0.49514216 -0.05 0.063348018 99634.255
0.48886606 -0.05 0.063476512 99629.995
0.48258979 -0.05 0.063596018 99625.781
0.47631335 -0.05 0.06370641 99621.511
0.47003675 -0.05 0.063807552 99617.22
0.46376002 -0.05 0.063899192 99612.96
0.45748314 -0.05 0.063981117 99608.716
0.45120615 -0.05 0.064053164 99604.469
0.44492904 -0.05 0.064115152 99600.208
0.43865184 -0.05 0.064166854 99595.967
0.43237457 -0.05 0.06420803 99591.76
0.42609724 -0.05 0.06423847 99587.556
0.41981985 -0.05 0.064257977 99583.329
0.41354245 -0.05 0.0642663 99579.129
0.40726503 -0.05 0.064263163 99574.947
0.40098765 -0.05 0.064248343 99570.738
0.39471029 -0.05 0.064221554 99566.611
0.38843301 -0.05 0.064182488 99562.527
0.38215581 -0.05 0.06413093 99558.411
0.37587873 -0.05 0.064066642 99554.279
0.3696018 -0.05 0.063989225 99550.263
0.36332505 -0.05 0.063898361 99546.253
0.35704852 -0.05 0.063793808 99542.276
0.35077222 -0.05 0.063675231 99538.328
0.34449622 -0.05 0.063542275 99534.414
0.33822055 -0.05 0.063394554 99530.568
0.33194526 -0.05 0.06323174 99526.705
0.32567039 -0.05 0.063053444 99522.94
0.31939599 -0.05 0.062859243 99519.3
0.31312211 -0.05 0.06264875 99515.907
0.30684882 -0.05 0.062421551 99512.251
0.30057616 -0.05 0.062177215 99507.493
