# wallShearStress  FACE_DATA 448
# x y z  wallShearStress_x wallShearStress_y wallShearStress_z
0.29963536 -0.05 -0.057973785 -7.127063 -2.9578536e-17 -0.28145097
0.29400253 -0.05 -0.058196728 -7.3313863 -1.791211e-16 -0.27053666
0.28845023 -0.05 -0.058401903 -7.4593704 1.7652542e-16 -0.25629938
0.28297734 -0.05 -0.058589568 -7.5899225 5.887359e-17 -0.24041857
0.27758275 -0.05 -0.058760038 -7.7186645 1.4041987e-16 -0.22369031
0.27226538 -0.05 -0.058913655 -7.8469577 -3.8995787e-17 -0.20599326
0.26702416 -0.05 -0.059050739 -7.9743916 1.2574091e-16 -0.18742505
0.26185803 -0.05 -0.059171581 -8.1011716 3.2434059e-17 -0.16785432
0.25676595 -0.05 -0.059276513 -8.2272674 1.3324026e-17 -0.14749198
0.2517469 -0.05 -0.059365824 -8.352963 -1.1829003e-17 -0.12615121
0.24679988 -0.05 -0.059439743 -8.4771913 7.1915491e-17 -0.10444571
0.24192387 -0.05 -0.059498588 -8.6002118 -1.1575142e-16 -0.082332136
0.2371179 -0.05 -0.059542647 -8.72171 -3.8662365e-17 -0.05764132
0.23238101 -0.05 -0.059572222 -8.8418273 -1.6302157e-17 -0.030621012
0.22771225 -0.05 -0.059587598 -8.9609312 -1.6855498e-17 -0.0035223959
0.22311066 -0.05 -0.059588986 -9.0785222 3.0818673e-18 0.025189858
0.21857532 -0.05 -0.059576692 -9.1952619 3.5024309e-17 0.05513749
0.21410533 -0.05 -0.059550976 -9.3117628 6.0490887e-17 0.083033597
0.20969978 -0.05 -0.05951201 -9.4265625 6.5161125e-17 0.11246315
0.20535779 -0.05 -0.059460097 -9.5403122 1.0817161e-16 0.14302658
0.20107849 -0.05 -0.059395488 -9.6531404 1.8354237e-17 0.17500306
0.19686101 -0.05 -0.059318451 -9.7653105 1.4249367e-16 0.20837602
0.1927045 -0.05 -0.059229227 -9.8770532 4.4302547e-17 0.24302999
0.18860813 -0.05 -0.059127934 -9.9872302 -3.3754392e-17 0.27872708
0.18457108 -0.05 -0.059014863 -10.096383 -3.9531463e-17 0.31529323
0.18059255 -0.05 -0.058890238 -10.204852 5.1815209e-17 0.35315957
0.17667171 -0.05 -0.058754254 -10.312052 2.2473707e-17 0.39190986
0.17280778 -0.05 -0.058607153 -10.418551 1.1624596e-16 0.43189115
0.16899999 -0.05 -0.05844913 -10.523837 -2.0320855e-16 0.47295583
0.16524757 -0.05 -0.058280356 -10.627711 -2.0326842e-16 0.51530207
0.16154979 -0.05 -0.058100992 -10.729748 1.2766635e-16 0.55859768
0.15790588 -0.05 -0.057911296 -10.830696 -1.2206523e-16 0.60309767
0.15431512 -0.05 -0.057711414 -10.930099 -2.787442e-16 0.64888971
0.15077679 -0.05 -0.057501516 -11.027814 -1.2213475e-17 0.69573301
0.14729018 -0.05 -0.057281785 -11.124364 1.1130518e-16 0.74399784
0.1438546 -0.05 -0.057052342 -11.219259 1.2247422e-16 0.79341397
0.14046934 -0.05 -0.056813375 -11.312871 1.6409024e-16 0.84407587
0.13713376 -0.05 -0.056565029 -11.405067 1.6659849e-16 0.89596782
0.13384716 -0.05 -0.056307503 -11.496407 -1.8267866e-16 0.94909682
0.1306089 -0.05 -0.056040933 -11.58691 6.5353608e-17 1.003909
0.12741833 -0.05 -0.055765372 -11.675154 7.1486831e-17 1.0597939
0.12427481 -0.05 -0.055481032 -11.762246 -4.1325688e-17 1.1169524
0.12117773 -0.05 -0.055188059 -11.848456 -1.6857485e-17 1.1759365
0.11812647 -0.05 -0.054886494 -11.93251 -1.4223427e-16 1.2363492
0.11512042 -0.05 -0.054576437 -12.014358 1.1885535e-16 1.2980604
0.112159 -0.05 -0.054258043 -12.094342 -8.1816398e-17 1.3612941
0.10924161 -0.05 -0.05393137 -12.171793 2.6082039e-16 1.4260288
0.1063677 -0.05 -0.053596533 -12.246966 1.0521097e-16 1.4918774
0.10353667 -0.05 -0.053253713 -12.321376 3.8198939e-16 1.5599297
0.10074799 -0.05 -0.052902874 -12.393281 3.0370805e-16 1.629667
0.09800112 -0.05 -0.05254409 -12.462888 1.3866232e-16 1.7006234
0.095295515 -0.05 -0.052177526 -12.531507 -5.0014241e-17 1.773932
0.092630669 -0.05 -0.051803121 -12.596999 -1.0668011e-16 1.8489927
0.090006063 -0.05 -0.051420958 -12.659387 -1.8543204e-16 1.9253615
0.08742119 -0.05 -0.051031122 -12.719262 4.9545377e-16 2.0038697
0.084875557 -0.05 -0.050633661 -12.775936 8.27007e-17 2.0840734
0.08236868 -0.05 -0.050228634 -12.829769 1.036975e-16 2.1669952
0.079900106 -0.05 -0.049815955 -12.878462 1.9811463e-16 2.2516073
0.077469377 -0.05 -0.049395633 -12.922315 -5.264974e-16 2.3377087
0.075076031 -0.05 -0.048967757 -12.962946 1.034974e-15 2.4259522
0.072719622 -0.05 -0.048532363 -13.000952 -6.7394218e-16 2.51715
0.070399743 -0.05 -0.048089353 -13.035179 4.3998868e-16 2.6108224
0.06811598 -0.05 -0.047638703 -13.066847 -4.1754733e-16 2.7074444
0.065867924 -0.05 -0.047180422 -13.096405 -6.3879547e-16 2.8072479
0.063655192 -0.05 -0.046714434 -13.123032 -4.5776907e-16 2.9103566
0.061477415 -0.05 -0.046240667 -13.148944 -7.913032e-16 3.0171488
0.059334226 -0.05 -0.045759072 -13.175101 2.8211332e-16 3.1279715
0.05722528 -0.05 -0.045269561 -13.199412 -7.6204867e-16 3.2425498
0.055150228 -0.05 -0.044772109 -13.221722 3.6430838e-16 3.3619135
0.05310877 -0.05 -0.04426654 -13.239674 2.4085372e-16 3.4858951
0.051100611 -0.05 -0.043752713 -13.251037 6.1290228e-16 3.6137684
0.049125446 -0.05 -0.043230572 -13.257584 1.237182e-16 3.7478106
0.047183015 -0.05 -0.042699944 -13.258263 -1.8612449e-16 3.8884283
0.045273076 -0.05 -0.042160651 -13.254931 5.5664303e-16 4.037022
0.043395425 -0.05 -0.041612424 -13.24993 5.1947058e-16 4.1934662
0.041549855 -0.05 -0.041055075 -13.245949 2.7016452e-16 4.3588483
0.039736165 -0.05 -0.040488463 -13.245009 2.5057621e-16 4.5351893
0.037954212 -0.05 -0.039912305 -13.251416 -2.4986104e-16 4.7235645
0.036203881 -0.05 -0.039326299 -13.256231 -4.8627313e-16 4.9222597
0.034485087 -0.05 -0.038730132 -13.257291 -3.1812686e-16 5.1319457
0.032797769 -0.05 -0.038123493 -13.250474 -2.6910709e-17 5.3526923
0.031141904 -0.05 -0.037506026 -13.231931 -4.3428336e-16 5.5850898
0.029517534 -0.05 -0.0368773 -13.195559 1.7938005e-16 5.8283999
0.027924714 -0.05 -0.036236931 -13.13677 -2.148124e-16 6.0838047
0.026363578 -0.05 -0.035584427 -13.050393 7.1948998e-16 6.3513056
0.024834315 -0.05 -0.034919265 -12.933419 -4.3159198e-16 6.6319595
0.023337169 -0.05 -0.034240926 -12.787827 -8.7974856e-16 6.928184
0.021872498 -0.05 -0.033548769 -12.613834 -1.3088956e-16 7.2396868
0.02044069 -0.05 -0.032842208 -12.414374 -7.2743193e-16 7.5680182
0.019042291 -0.05 -0.032120498 -12.197328 6.0862969e-16 7.9111774
0.017677934 -0.05 -0.031382856 -11.968693 -6.0242672e-16 8.2657921
0.016348344 -0.05 -0.030628511 -11.737721 -4.4202217e-16 8.6295245
0.015054434 -0.05 -0.029856583 -11.496717 -4.9460893e-16 8.9961404
0.013797296 -0.05 -0.02906617 -11.232785 -9.1445954e-16 9.3574873
0.012578216 -0.05 -0.028256327 -10.929056 3.5694188e-16 9.7033536
0.011398704 -0.05 -0.027426003 -10.575386 2.8778234e-16 10.021913
0.010260468 -0.05 -0.026574074 -10.162426 4.9393068e-16 10.304996
0.0091655363 -0.05 -0.025699607 -9.6824193 9.2633684e-17 10.541986
0.0081163619 -0.05 -0.024801661 -9.1211756 -2.8965688e-16 10.716429
0.0071156316 -0.05 -0.023879042 -8.4745254 -2.77106e-16 10.798561
0.0061663712 -0.05 -0.022930898 -7.7488877 -1.8121993e-16 10.780971
0.0052723035 -0.05 -0.021956913 -6.9581918 -2.7643196e-16 10.644357
0.0044372802 -0.05 -0.020956553 -6.1046159 3.3208563e-16 10.363603
0.0036653927 -0.05 -0.019929825 -5.2129234 -2.3638992e-16 9.923107
0.0029614301 -0.05 -0.018877853 -4.3096584 2.8091851e-17 9.3133689
0.0023300234 -0.05 -0.017801919 -3.4234942 8.4318909e-17 8.5290158
0.0017756132 -0.05 -0.016704342 -2.5858089 4.8076064e-16 7.5797913
0.0013022897 -0.05 -0.01558899 -1.8272284 2.3480627e-16 6.4968256
0.00091331278 -0.05 -0.014460133 -1.1800438 4.7916601e-17 5.3247913
0.00061065371 -0.05 -0.013322999 -0.70900582 2.81387e-17 4.1207343
0.00039464718 -0.05 -0.012183636 -0.40746299 3.1641437e-17 2.934845
0.00026404962 -0.05 -0.011048167 -0.22910752 -3.7096737e-17 1.8220817
0.99625571 -0.05 0.030867034 -0.023970424 -4.2572835e-16 -0.1947957
0.99008558 -0.05 0.029711453 0.010836866 1.3540278e-17 -0.00026783981
0.98391415 -0.05 0.028562811 0.015673286 2.998235e-16 0.0025351552
0.97774144 -0.05 0.027421082 0.0055582384 7.2371517e-17 0.00052069694
0.97156748 -0.05 0.02628616 0.010666106 4.6770076e-16 0.0014517631
0.9653923 -0.05 0.025157889 0.0080724644 4.6607849e-16 0.00091935322
0.9592159 -0.05 0.024036286 0.0093302824 -1.2021279e-16 0.0011525567
0.95303831 -0.05 0.022921288 0.0088310057 -6.1632744e-16 0.0010455144
0.94685955 -0.05 0.021812742 0.0092854036 9.8506829e-16 0.001086896
0.94067965 -0.05 0.020710565 0.0099438142 -2.2414938e-16 0.0010151351
0.93449863 -0.05 0.01961475 0.011071572 3.7569341e-16 0.001202046
0.92831649 -0.05 0.018525239 0.011337503 -5.157475e-16 0.001371253
0.92213325 -0.05 0.017441956 0.011307627 4.0687377e-16 0.0014591627
0.91594893 -0.05 0.016364867 0.010813922 9.3597443e-17 0.0013717568
0.90976356 -0.05 0.015293822 0.010052684 -7.9803264e-16 0.0012420574
0.90357715 -0.05 0.014228824 0.0093463567 -1.5101773e-16 0.0010750758
0.89738972 -0.05 0.013169842 0.0085527852 1.6120682e-16 0.00089808074
0.89120128 -0.05 0.012116739 0.007338968 -1.6681373e-16 0.00067109765
0.88501184 -0.05 0.011069505 0.0057467649 1.4630513e-16 0.00039631198
0.87882139 -0.05 0.010028193 0.0037646763 8.6666223e-16 5.2183421e-05
0.87262998 -0.05 0.0089926692 0.001313383 2.6519646e-17 -0.00035597781
0.86643761 -0.05 0.0079628653 -0.001696896 -8.4789496e-16 -0.00083869901
0.86024429 -0.05 0.0069388102 -0.0052012435 1.2119951e-15 -0.0013525687
0.85405004 -0.05 0.0059204179 -0.0087308287 -4.8717413e-16 -0.0019343292
0.84785486 -0.05 0.0049076264 -0.01268276 -7.7383253e-16 -0.0025739187
0.84165878 -0.05 0.0039004497 -0.017260357 5.4832455e-16 -0.0033074016
0.83546178 -0.05 0.0028989239 -0.02249603 1.6348822e-15 -0.0041336443
0.82926389 -0.05 0.0019028749 -0.028505107 7.8898574e-16 -0.0050733741
0.82306513 -0.05 0.00091234265 -0.035352677 -1.4963317e-16 -0.0061334804
0.81686547 -0.05 -7.262622e-05 -0.043019208 2.4811459e-16 -0.0073054397
0.81066495 -0.05 -0.0010521108 -0.051615836 1.3446665e-16 -0.0086064981
0.80446355 -0.05 -0.0020261203 -0.061151419 -1.0453507e-15 -0.010031871
0.79826131 -0.05 -0.0029946862 -0.07200355 5.8032697e-16 -0.011631868
0.79205822 -0.05 -0.003957763 -0.08429803 -8.1382363e-16 -0.013419462
0.7858543 -0.05 -0.0049154371 -0.098250739 -1.1260582e-15 -0.015428704
0.77964953 -0.05 -0.0058676729 -0.11377545 -3.3583416e-17 -0.017656192
0.77344393 -0.05 -0.0068144393 -0.13090689 -2.2289797e-16 -0.020125111
0.7672375 -0.05 -0.0077557964 -0.1500161 -2.401817e-16 -0.022871215
0.76103025 -0.05 -0.0086917302 -0.17142325 -6.283073e-16 -0.025871646
0.75482218 -0.05 -0.0096222296 -0.19474371 -5.4236426e-16 -0.029130669
0.74861331 -0.05 -0.010547267 -0.22003633 1.0093372e-15 -0.032641765
0.74240361 -0.05 -0.011466828 -0.24727219 1.0756066e-16 -0.036381531
0.73619311 -0.05 -0.012380896 -0.27659865 1.0263369e-16 -0.040371663
0.72998179 -0.05 -0.013289437 -0.3079486 -7.14493e-16 -0.044609009
0.72376968 -0.05 -0.014192483 -0.34146881 2.1942023e-16 -0.049108922
0.71755677 -0.05 -0.015090064 -0.37726557 4.6569125e-16 -0.053855396
0.71134304 -0.05 -0.015982006 -0.41530455 -8.8989747e-16 -0.058856834
0.70512852 -0.05 -0.016868358 -0.45569387 -5.7813893e-18 -0.064126275
0.6989132 -0.05 -0.017749088 -0.49873159 2.581488e-16 -0.069696336
0.69269707 -0.05 -0.0186241 -0.54399871 3.5808894e-16 -0.075490313
0.68648015 -0.05 -0.019493454 -0.59191417 2.7602989e-16 -0.081560907
0.68026243 -0.05 -0.020357049 -0.64229335 -3.4699859e-16 -0.087880211
0.67404391 -0.05 -0.021214895 -0.69550777 -3.499598e-16 -0.094490995
0.66782458 -0.05 -0.022066878 -0.75131913 3.8158132e-16 -0.10132957
0.66160444 -0.05 -0.022912896 -0.80950403 2.927852e-16 -0.10840333
0.6553835 -0.05 -0.023753035 -0.87030283 2.7647449e-16 -0.11571642
0.64916176 -0.05 -0.024587207 -0.93389535 4.5919095e-16 -0.12326128
0.64293921 -0.05 -0.025415247 -0.99989094 1.1880964e-16 -0.13098039
0.63671583 -0.05 -0.026237122 -1.0683116 -1.3167844e-15 -0.13890143
0.63049164 -0.05 -0.027052833 -1.1392719 -4.1217325e-16 -0.14702419
0.62426663 -0.05 -0.027862246 -1.2126575 -6.0033569e-16 -0.15536198
0.61804079 -0.05 -0.028665273 -1.2888309 2.3036024e-16 -0.1638316
0.61181414 -0.05 -0.029461913 -1.36908 1.2238205e-15 -0.17251102
0.60558665 -0.05 -0.030252021 -1.4522903 -1.74639e-16 -0.18142858
0.59935833 -0.05 -0.031035524 -1.5380309 5.7643833e-16 -0.19052861
0.59312917 -0.05 -0.03181234 -1.6262505 7.0985502e-17 -0.19973354
0.58689916 -0.05 -0.032582377 -1.717212 1.7893607e-16 -0.20906979
0.58066831 -0.05 -0.033345519 -1.811331 8.6915753e-17 -0.21853399
0.5744366 -0.05 -0.034101622 -1.9081852 -4.9410135e-16 -0.22810047
0.56820404 -0.05 -0.034850654 -2.0074133 -2.1725579e-16 -0.23768447
0.56197062 -0.05 -0.035592492 -2.108297 5.3153208e-16 -0.24717003
0.55573632 -0.05 -0.036326975 -2.2104504 -6.4389953e-16 -0.25651682
0.54950116 -0.05 -0.037054031 -2.3141111 7.7899259e-17 -0.26573105
0.54326511 -0.05 -0.037773499 -2.4190771 -5.36269e-16 -0.27476579
0.53702819 -0.05 -0.038485238 -2.5248131 -7.0795044e-16 -0.28362027
0.53079037 -0.05 -0.039189179 -2.6314629 3.4302871e-16 -0.29224857
0.52455166 -0.05 -0.039885148 -2.7387537 4.8060537e-16 -0.30061243
0.51831205 -0.05 -0.040573005 -2.8468594 -2.2375747e-17 -0.30871439
0.51207153 -0.05 -0.041252581 -2.9559764 -1.0885359e-15 -0.31654839
0.5058301 -0.05 -0.04192374 -3.0661435 1.5597272e-16 -0.32414445
0.49958776 -0.05 -0.042586355 -3.1773718 3.7583439e-16 -0.33145531
0.4933445 -0.05 -0.043240233 -3.2891161 -1.2105265e-15 -0.33842194
0.48710031 -0.05 -0.043885168 -3.4012562 -1.3797655e-15 -0.34502241
0.48085519 -0.05 -0.044521036 -3.514145 1.2684868e-16 -0.35130929
0.47460913 -0.05 -0.045147698 -3.6284617 1.0436243e-15 -0.35723568
0.46836214 -0.05 -0.045764905 -3.7439141 9.2782759e-16 -0.36279958
0.46211419 -0.05 -0.046372442 -3.86008 5.8860552e-17 -0.36797297
0.45586531 -0.05 -0.046970147 -3.9769136 3.963128e-16 -0.3727438
0.44961547 -0.05 -0.047557836 -4.0943995 4.1487988e-18 -0.37705793
0.44336467 -0.05 -0.048135283 -4.2127085 9.0442235e-18 -0.38089797
0.43711292 -0.05 -0.048702248 -4.3320843 4.9594655e-16 -0.38426699
0.43086021 -0.05 -0.04925852 -4.4526526 2.3711701e-18 -0.38718991
0.42460653 -0.05 -0.049803899 -4.5743825 -1.2417832e-17 -0.38962375
0.41835189 -0.05 -0.050338138 -4.69702 -5.0565366e-16 -0.39149797
0.41209629 -0.05 -0.050860958 -4.8203119 -2.593727e-16 -0.39279726
0.40583973 -0.05 -0.051372133 -4.9444412 4.4579606e-16 -0.39351421
0.39958221 -0.05 -0.051871377 -5.0695679 -1.3126012e-16 -0.39355681
0.39332372 -0.05 -0.052358384 -5.1956038 -1.7500328e-17 -0.39298028
0.38706428 -0.05 -0.052832935 -5.323039 5.4943321e-17 -0.39180688
0.38080389 -0.05 -0.053294789 -5.4520421 5.04146e-16 -0.38993832
0.37454253 -0.05 -0.053743549 -5.5819063 -3.3073804e-16 -0.38724417
0.36828024 -0.05 -0.054178894 -5.7122039 1.002874e-16 -0.38384816
0.36201701 -0.05 -0.054600581 -5.8435559 -2.0766988e-16 -0.3796342
0.35575285 -0.05 -0.055008271 -5.9762154 -2.5268646e-17 -0.37457392
0.34948778 -0.05 -0.05540161 -6.1104815 6.710378e-16 -0.3686278
0.34322181 -0.05 -0.055780208 -6.246025 1.2027275e-16 -0.36177529
0.33695493 -0.05 -0.056143734 -6.3825988 2.4152341e-16 -0.3539966
0.33068718 -0.05 -0.056491797 -6.5198753 -4.4885236e-16 -0.34510661
0.32441857 -0.05 -0.056823972 -6.6576749 2.6962945e-16 -0.33516922
0.31814912 -0.05 -0.057139868 -6.797616 -6.7127018e-16 -0.32423368
0.31187885 -0.05 -0.057439068 -6.9394927 -2.3158254e-18 -0.3124627
0.30560778 -0.05 -0.057721137 -7.0138588 1.4506524e-17 -0.29605769
0.29460358 -0.05 0.061928583 -7.140781 -1.3552111e-16 -0.31185338
0.28897188 -0.05 0.061678804 -7.0511026 -1.3058864e-16 -0.32604678
0.28342191 -0.05 0.061418064 -7.0376403 -3.8239582e-17 -0.3440443
0.27795254 -0.05 0.06114653 -7.0172393 2.6620485e-16 -0.3619671
0.27256263 -0.05 0.060864422 -7.0001423 6.2967266e-17 -0.38001229
0.26725109 -0.05 0.060571989 -6.9841387 2.2999226e-16 -0.39828165
0.26201681 -0.05 0.060269463 -6.969759 -1.5626427e-16 -0.41668916
0.25685872 -0.05 0.059957042 -6.9568566 -2.0160752e-16 -0.43539205
0.25177575 -0.05 0.059634971 -6.9455497 -1.7066028e-16 -0.45419279
0.24676687 -0.05 0.059303453 -6.9359612 -1.3900447e-16 -0.47342613
0.24183104 -0.05 0.058962631 -6.9273672 3.520798e-16 -0.49279967
0.23696725 -0.05 0.05861274 -6.9200812 -9.5899771e-17 -0.51242941
0.23217449 -0.05 0.058253983 -6.9139162 -7.0091553e-16 -0.53226903
0.22745178 -0.05 0.057886579 -6.908945 3.1667148e-16 -0.552362
0.22279814 -0.05 0.057510734 -6.9052675 -4.4716335e-16 -0.57280345
0.21821261 -0.05 0.057126579 -6.9027497 -1.1357149e-16 -0.59361458
0.21369425 -0.05 0.056734341 -6.9015153 3.2345771e-16 -0.61461172
0.20924214 -0.05 0.056334203 -6.90185 4.1814176e-16 -0.63621182
0.20485534 -0.05 0.055926261 -6.9028412 -2.170929e-16 -0.65806422
0.20053297 -0.05 0.055510742 -6.9048393 4.4523764e-16 -0.68020247
0.19627413 -0.05 0.055087824 -6.9078536 1.1902312e-16 -0.70273082
0.19207792 -0.05 0.054657702 -6.9120408 3.4243894e-16 -0.72558828
0.18794351 -0.05 0.054220544 -6.9177524 -6.9653826e-17 -0.74906056
0.18387003 -0.05 0.053776398 -6.924037 7.2994846e-16 -0.77290711
0.17985665 -0.05 0.053325484 -6.9313441 9.3815077e-17 -0.79705953
0.17590254 -0.05 0.05286796 -6.9400529 -3.9394517e-16 -0.82186068
0.17200687 -0.05 0.052403951 -6.9496486 3.3680906e-17 -0.84700169
0.16816886 -0.05 0.051933634 -6.9608228 -7.4064102e-16 -0.87278937
0.1643877 -0.05 0.051457136 -6.973 -3.56754e-16 -0.8990706
0.16066262 -0.05 0.050974564 -6.9860355 9.729004e-17 -0.92597144
0.15699287 -0.05 0.050486016 -6.9993443 2.4896288e-16 -0.95320259
0.15337766 -0.05 0.049991687 -7.0135685 2.3087748e-16 -0.98101379
0.14981627 -0.05 0.04949166 -7.0285358 -4.1686566e-16 -1.0094847
0.14630797 -0.05 0.048986046 -7.0442101 -5.3501669e-17 -1.0384858
0.14285203 -0.05 0.048474965 -7.061108 -4.7229306e-17 -1.0683236
0.13944774 -0.05 0.047958483 -7.0784475 -8.3271319e-17 -1.098708
0.13609442 -0.05 0.047436728 -7.0962532 -1.9128386e-16 -1.1296962
0.13279137 -0.05 0.046909788 -7.1144296 2.7143405e-16 -1.1612973
0.12953791 -0.05 0.046377803 -7.1333404 2.0545024e-16 -1.193576
0.12633336 -0.05 0.045840856 -7.153265 -2.3711851e-17 -1.2268596
0.1231771 -0.05 0.045298947 -7.1733809 4.2603172e-17 -1.2607003
0.12006846 -0.05 0.044752232 -7.1949219 -2.41307e-16 -1.2954249
0.11700682 -0.05 0.044200803 -7.2183435 -4.5662237e-17 -1.3314637
0.11399154 -0.05 0.043644652 -7.2419699 -7.3749372e-16 -1.3682913
0.11102204 -0.05 0.043083827 -7.2650105 -2.5202341e-16 -1.4056846
0.10809771 -0.05 0.042518433 -7.287382 4.2731178e-16 -1.4437963
0.10521795 -0.05 0.041948479 -7.3089049 -4.8931305e-16 -1.4826237
0.1023822 -0.05 0.041374033 -7.3297052 1.8295936e-16 -1.521945
0.099589844 -0.05 0.040795224 -7.3516838 -7.9583321e-16 -1.5627702
0.096840365 -0.05 0.040211972 -7.374185 -5.0136608e-17 -1.6048069
0.094133214 -0.05 0.039624306 -7.3971226 -5.7708951e-16 -1.6478001
0.091467834 -0.05 0.039032347 -7.4214508 4.3135604e-17 -1.6924939
0.088843726 -0.05 0.038435987 -7.445314 3.4050366e-16 -1.7382088
0.086260367 -0.05 0.037835267 -7.4682582 -9.6166101e-16 -1.784621
0.083717245 -0.05 0.037230233 -7.4914735 1.1828697e-16 -1.8323726
0.081213864 -0.05 0.036620886 -7.5142102 -8.2935649e-16 -1.8810811
0.078749736 -0.05 0.036007248 -7.5379105 2.7868508e-16 -1.9318789
0.076324417 -0.05 0.035389194 -7.5604909 -4.4424166e-16 -1.983923
0.073937451 -0.05 0.034766694 -7.5811426 -6.6130258e-16 -2.0367783
0.071588368 -0.05 0.034139799 -7.6001877 -1.0472071e-15 -2.0906596
0.069276724 -0.05 0.033508507 -7.6178039 6.4043604e-16 -2.1461862
0.067002119 -0.05 0.032872686 -7.6335035 5.3749329e-16 -2.202915
0.064764143 -0.05 0.032232278 -7.6480763 5.5699119e-16 -2.2609696
0.062562387 -0.05 0.031587258 -7.6627175 1.194925e-15 -2.3212557
0.060396478 -0.05 0.030937517 -7.6767819 -2.2560576e-16 -2.3835981
0.058266052 -0.05 0.030282955 -7.6900762 -3.085506e-16 -2.448041
0.056170747 -0.05 0.029623488 -7.7022956 -4.1617496e-16 -2.5146629
0.05411023 -0.05 0.028959002 -7.7130519 6.6549036e-16 -2.5830757
0.052084152 -0.05 0.028289444 -7.7217112 1.7643623e-16 -2.6536044
0.05009223 -0.05 0.027614612 -7.7273898 -5.1678779e-16 -2.7257822
0.048134183 -0.05 0.026934341 -7.7274706 -2.1519037e-16 -2.7984752
0.04620971 -0.05 0.026248549 -7.7250955 4.2287026e-16 -2.8744139
0.044318567 -0.05 0.025557043 -7.7201527 -5.1770837e-16 -2.9540381
0.042460526 -0.05 0.024859623 -7.7109245 -1.4720208e-16 -3.0361079
0.040635409 -0.05 0.024156007 -7.6921513 4.8254535e-16 -3.1180235
0.038843026 -0.05 0.023445989 -7.6643823 -2.601568e-16 -3.199996
0.037083186 -0.05 0.022729411 -7.631181 -3.76082e-16 -3.2843351
0.03535577 -0.05 0.022005981 -7.5970372 -2.9427054e-16 -3.3731188
0.033660692 -0.05 0.021275386 -7.5661584 -6.394648e-16 -3.4683576
0.031997891 -0.05 0.020537309 -7.5406105 3.2262749e-17 -3.570781
0.030367331 -0.05 0.019791432 -7.5076982 8.9701018e-16 -3.6744968
0.028769022 -0.05 0.019037402 -7.4616422 -6.5320761e-18 -3.777763
0.02720304 -0.05 0.018274791 -7.3953917 -6.0060859e-16 -3.8796848
0.025669474 -0.05 0.01750322 -7.304817 -1.9789133e-16 -3.9819469
0.024168496 -0.05 0.016722212 -7.1847799 -3.1758428e-16 -4.0861156
0.02270034 -0.05 0.015931262 -7.0434962 9.8642187e-17 -4.198403
0.021265291 -0.05 0.015129872 -6.8937474 2.1204497e-16 -4.3228449
0.019863762 -0.05 0.014317433 -6.7402054 6.1993438e-17 -4.4619964
0.018496186 -0.05 0.013493395 -6.56787 1.1138397e-16 -4.6156038
0.017163171 -0.05 0.012657059 -6.3811628 -1.3309529e-15 -4.7898054
0.015865413 -0.05 0.011807699 -6.1743531 4.3668686e-16 -4.9812814
0.014603701 -0.05 0.010944609 -5.9596028 3.6292966e-16 -5.1904533
0.013379016 -0.05 0.010066986 -5.7589064 1.0847042e-16 -5.4085755
0.012192522 -0.05 0.0091740238 -5.6100026 8.0951843e-16 -5.6368001
0.011045579 -0.05 0.0082648904 -5.5111509 -7.42922e-16 -5.872769
0.0099397829 -0.05 0.0073386612 -5.3999793 1.2689123e-16 -6.0885974
0.0088769267 -0.05 0.0063943626 -5.2373176 -7.6978636e-16 -6.2527642
0.0078591104 -0.05 0.0054312315 -4.9930728 3.1676776e-16 -6.3494562
0.0068888583 -0.05 0.0044485393 -4.6620169 1.1985098e-16 -6.3666374
0.005968947 -0.05 0.0034453193 -4.2540243 -3.2573348e-17 -6.2855648
0.0051024632 -0.05 0.0024209769 -3.788417 5.3155338e-16 -6.1009026
0.0042931433 -0.05 0.0013755083 -3.2803246 6.1616272e-17 -5.7985476
0.0035448699 -0.05 0.00030870349 -2.7450354 4.3061976e-17 -5.3759704
0.0028617195 -0.05 -0.00077908579 -2.2040641 4.5781206e-16 -4.8232317
0.0022483701 -0.05 -0.0018863395 -1.6800519 -2.7128235e-16 -4.1524862
0.0017093293 -0.05 -0.0030113913 -1.197355 -4.6594735e-16 -3.3801297
0.0012488276 -0.05 -0.0041515606 -0.78486626 -2.247132e-16 -2.5217409
0.00087061665 -0.05 -0.0053026476 -0.46403055 9.6031032e-17 -1.6037835
0.00057758728 -0.05 -0.0064601256 -0.2736625 -5.6147033e-17 -0.83872565
0.00037126574 -0.05 -0.0076186197 -0.17027633 -1.545313e-17 -0.23180186
0.00025147878 -0.05 -0.0087720742 -0.13146482 -1.101212e-17 0.32802735
0.00021647423 -0.05 -0.0099144923 -0.1446664 -2.7169138e-18 0.9802812
0.996218 -0.05 0.031765596 -17.133139 -7.017839e-16 1.8104748
0.98997275 -0.05 0.032400157 -20.93339 1.3135244e-16 2.1030923
0.98372678 -0.05 0.033027695 -21.027881 -1.386852e-17 2.0904397
0.97748011 -0.05 0.033648237 -20.89076 1.1611502e-15 2.053205
0.97123277 -0.05 0.03426189 -20.785191 9.9815588e-16 2.0201216
0.96498477 -0.05 0.034868814 -20.655266 -5.6761407e-16 1.9848944
0.95873612 -0.05 0.035468992 -20.519608 4.8531829e-17 1.9493257
0.95248682 -0.05 0.036062487 -20.37979 1.7641162e-16 1.9142679
0.94623692 -0.05 0.036649457 -20.238823 1.0959888e-15 1.8795717
0.9399864 -0.05 0.037229985 -20.095685 -2.8462573e-16 1.8453736
0.9337353 -0.05 0.037804077 -19.947266 4.3065831e-16 1.8109882
0.92748361 -0.05 0.038371793 -19.791841 -4.4731318e-16 1.7767957
0.92123136 -0.05 0.038933212 -19.631765 -1.1620149e-16 1.7423198
0.91497855 -0.05 0.039488369 -19.472724 -6.7388428e-16 1.7085015
0.90872519 -0.05 0.040037415 -19.319347 -1.8253281e-16 1.6755818
0.9024713 -0.05 0.040580348 -19.170173 8.5870432e-16 1.6434221
0.89621689 -0.05 0.041117201 -19.019083 -5.3480997e-16 1.6120137
0.88996197 -0.05 0.04164811 -18.860309 -1.3993432e-17 1.5806346
0.88370655 -0.05 0.042173088 -18.694731 3.1562881e-17 1.5488904
0.87745063 -0.05 0.042692079 -18.527904 1.2166861e-16 1.517432
0.87119423 -0.05 0.043205222 -18.361951 -3.4536871e-16 1.4869868
0.86493735 -0.05 0.043712586 -18.187344 -1.2476699e-15 1.4564003
0.85868 -0.05 0.04421414 -17.995833 9.0027354e-16 1.4252005
0.85242221 -0.05 0.044709974 -17.795082 -3.0211845e-16 1.3936214
0.84616396 -0.05 0.04520015 -17.59311 2.9656848e-17 1.3623177
0.83990528 -0.05 0.045684654 -17.392401 1.4417538e-16 1.3313229
0.83364615 -0.05 0.04616345 -17.192712 1.0213546e-15 1.3008823
0.8273866 -0.05 0.046636715 -16.994604 -7.4437607e-16 1.2713713
0.82112664 -0.05 0.047104409 -16.796903 5.009644e-16 1.2416256
0.81486626 -0.05 0.047566484 -16.598936 2.6177086e-17 1.2127144
0.80860548 -0.05 0.048023022 -16.401021 1.9604743e-16 1.1839871
0.80234428 -0.05 0.048474031 -16.20365 -2.6542164e-17 1.1559437
0.7960827 -0.05 0.048919544 -16.007526 -2.3871373e-16 1.127859
0.78982073 -0.05 0.049359517 -15.813181 -3.1189399e-16 1.1000769
0.78355837 -0.05 0.049794035 -15.621136 6.0181392e-16 1.072783
0.77729564 -0.05 0.050223064 -15.429693 -5.2449375e-16 1.0456482
0.77103253 -0.05 0.050646573 -15.238301 -1.2597786e-16 1.0190575
0.76476906 -0.05 0.051064623 -15.046921 2.5649694e-16 0.99282233
0.75850522 -0.05 0.051477199 -14.854973 -4.2939463e-16 0.96690891
0.75224102 -0.05 0.051884292 -14.661132 5.9270018e-16 0.94116939
0.74597647 -0.05 0.052285874 -14.463378 -1.9501005e-16 0.91566606
0.73971156 -0.05 0.05268193 -14.264384 -1.4554331e-16 0.89052391
0.73344631 -0.05 0.053072445 -14.066366 -1.0768463e-15 0.86582555
0.72718072 -0.05 0.053457384 -13.87042 -4.9392565e-16 0.84165646
0.72091478 -0.05 0.05383678 -13.676602 7.2711109e-16 0.81803667
0.71464852 -0.05 0.054210665 -13.484979 2.493203e-16 0.79467299
0.70838191 -0.05 0.054578861 -13.295049 2.8949552e-16 0.77142383
0.70211498 -0.05 0.054941421 -13.107978 -1.254843e-16 0.74889117
0.69584772 -0.05 0.055298312 -12.925031 1.4985023e-16 0.72642997
0.68958014 -0.05 0.055649438 -12.747837 4.0987864e-16 0.7047571
0.68331224 -0.05 0.055994857 -12.579731 1.0189511e-16 0.68374998
0.67704402 -0.05 0.056334471 -12.419963 5.7160795e-16 0.66356026
0.67077548 -0.05 0.05666829 -12.26597 -1.3584977e-16 0.64403367
0.66450665 -0.05 0.056996199 -12.115577 9.5779421e-16 0.62475323
0.65823749 -0.05 0.057318096 -11.967885 2.0311438e-16 0.60590857
0.65196804 -0.05 0.057634067 -11.823502 6.9110218e-17 0.58743202
0.64569828 -0.05 0.057944025 -11.68211 5.0752954e-17 0.56908187
0.63942823 -0.05 0.058247804 -11.542962 4.5355087e-16 0.55097005
0.63315787 -0.05 0.058545371 -11.406112 -2.7852729e-16 0.53320081
0.62688722 -0.05 0.05883673 -11.27196 1.5399183e-16 0.51571457
0.62061629 -0.05 0.059121742 -11.140023 -1.1714358e-16 0.4983299
0.61434506 -0.05 0.059400323 -11.010194 7.2522014e-17 0.48131134
0.60807355 -0.05 0.059672469 -10.882922 3.2040623e-16 0.46447624
0.60180176 -0.05 0.059938036 -10.757836 -2.9531585e-16 0.44777147
0.5955297 -0.05 0.060196952 -10.634921 7.5236748e-17 0.43135903
0.58925735 -0.05 0.060449134 -10.514327 8.4985649e-18 0.41505612
0.58298473 -0.05 0.06069449 -10.395978 5.719475e-17 0.39901066
0.57671185 -0.05 0.060932905 -10.279858 2.0026359e-16 0.38301198
0.57043871 -0.05 0.061164234 -10.165567 -4.4269237e-16 0.36725425
0.5641653 -0.05 0.061388445 -10.053627 -1.0683802e-16 0.35170176
0.55789164 -0.05 0.061605414 -9.9438744 1.7810537e-16 0.33621026
0.55161773 -0.05 0.061814982 -9.8360356 2.3594247e-16 0.32086927
0.54534358 -0.05 0.062017077 -9.7303893 -7.6044789e-17 0.30571274
0.53906918 -0.05 0.062211536 -9.6267698 -1.1051926e-16 0.29055416
0.53279455 -0.05 0.062398219 -9.5249179 -2.1176364e-16 0.27563412
0.52651968 -0.05 0.062577057 -9.4252775 -1.6609474e-16 0.26078608
0.5202446 -0.05 0.062747877 -9.3275623 -1.3766537e-18 0.24600564
0.51396929 -0.05 0.062910537 -9.2318435 2.2065502e-16 0.23132962
0.50769378 -0.05 0.06306487 -9.1379437 -2.1362272e-16 0.21668292
0.50141806 -0.05 0.063210738 -9.0458914 5.9363802e-17 0.20219083
0.49514216 -0.05 0.063348018 -8.9559666 -1.721418e-16 0.18771905
0.48886606 -0.05 0.063476512 -8.8679727 3.7714947e-17 0.17327116
0.48258979 -0.05 0.063596018 -8.7815968 5.6267511e-17 0.15885779
0.47631335 -0.05 0.06370641 -8.6971163 -1.342851e-16 0.14458926
0.47003675 -0.05 0.063807552 -8.6148438 7.9562468e-17 0.13028139
0.46376002 -0.05 0.063899192 -8.5344266 -2.035259e-16 0.11593845
0.45748314 -0.05 0.063981117 -8.4556357 -1.0984837e-16 0.10163953
0.45120615 -0.05 0.064053164 -8.3786665 -6.851352e-17 0.087400825
0.44492904 -0.05 0.064115152 -8.3036153 -1.8061932e-17 0.073233447
0.43865184 -0.05 0.064166854 -8.2304806 -1.9915246e-17 0.059278565
0.43237457 -0.05 0.06420803 -8.1589267 2.2481641e-17 0.045270926
0.42609724 -0.05 0.06423847 -8.0889574 1.2378495e-17 0.030390267
0.41981985 -0.05 0.064257977 -8.0208398 7.4783879e-18 0.015298227
0.41354245 -0.05 0.0642663 -7.9545896 -3.9065983e-19 0.00056808613
0.40726503 -0.05 0.064263163 -7.8899085 -1.0041624e-17 -0.014507754
0.40098765 -0.05 0.064248343 -7.8270894 -5.0450733e-19 -0.02992683
0.39471029 -0.05 0.064221554 -7.7660377 1.8984003e-17 -0.044229797
0.38843301 -0.05 0.064182488 -7.7063566 -3.4567166e-17 -0.058868659
0.38215581 -0.05 0.06413093 -7.6485168 -3.301373e-17 -0.073672974
0.37587873 -0.05 0.064066642 -7.5929401 -1.2760345e-17 -0.088690341
0.3696018 -0.05 0.063989225 -7.5390966 -2.5286437e-17 -0.10395421
0.36332505 -0.05 0.063898361 -7.486976 3.4734227e-17 -0.11935941
0.35704852 -0.05 0.063793808 -7.4371425 1.2272747e-16 -0.13506298
0.35077222 -0.05 0.063675231 -7.3896534 -1.2723196e-16 -0.15098083
0.34449622 -0.05 0.063542275 -7.3446863 -8.8774185e-17 -0.16717491
0.33822055 -0.05 0.063394554 -7.3022169 1.3819895e-16 -0.18366176
0.33194526 -0.05 0.06323174 -7.2623763 -4.4585281e-16 -0.2003892
0.32567039 -0.05 0.063053444 -7.2250104 1.0085797e-16 -0.2175889
0.31939599 -0.05 0.062859243 -7.1892406 2.6739846e-16 -0.23509762
0.31312211 -0.05 0.06264875 -7.1548785 5.9310412e-17 -0.25305857
0.30684882 -0.05 0.062421551 -7.1270288 -1.2889206e-16 -0.27178934
0.30057616 -0.05 0.062177215 -7.1676537 2.503129e-16 -0.2933048
