# yPlus  FACE_DATA 448
# x y z  yPlus
0.29963536 -0.05 -0.057973785 22.828562
0.29400253 -0.05 -0.058196728 23.150771
0.28845023 -0.05 -0.058401903 23.242284
0.28297734 -0.05 -0.058589568 23.33523
0.27758275 -0.05 -0.058760038 23.424446
0.27226538 -0.05 -0.058913655 23.51246
0.26702416 -0.05 -0.059050739 23.598543
0.26185803 -0.05 -0.059171581 23.68332
0.25676595 -0.05 -0.059276513 23.766626
0.2517469 -0.05 -0.059365824 23.849323
0.24679988 -0.05 -0.059439743 23.929685
0.24192387 -0.05 -0.059498588 24.008436
0.2371179 -0.05 -0.059542647 24.085257
0.23238101 -0.05 -0.059572222 24.160429
0.22771225 -0.05 -0.059587598 24.234075
0.22311066 -0.05 -0.059588986 24.306194
0.21857532 -0.05 -0.059576692 24.37724
0.21410533 -0.05 -0.059550976 24.44816
0.20969978 -0.05 -0.05951201 24.517407
0.20535779 -0.05 -0.059460097 24.585779
0.20107849 -0.05 -0.059395488 24.653616
0.19686101 -0.05 -0.059318451 24.721101
0.1927045 -0.05 -0.059229227 24.788725
0.18860813 -0.05 -0.059127934 24.8551
0.18457108 -0.05 -0.059014863 24.920599
0.18059255 -0.05 -0.058890238 24.986131
0.17667171 -0.05 -0.058754254 25.050436
0.17280778 -0.05 -0.058607153 25.114823
0.16899999 -0.05 -0.05844913 25.178172
0.16524757 -0.05 -0.058280356 25.240833
0.16154979 -0.05 -0.058100992 25.301889
0.15790588 -0.05 -0.057911296 25.362119
0.15431512 -0.05 -0.057711414 25.421691
0.15077679 -0.05 -0.057501516 25.479767
0.14729018 -0.05 -0.057281785 25.537374
0.1438546 -0.05 -0.057052342 25.593709
0.14046934 -0.05 -0.056813375 25.649182
0.13713376 -0.05 -0.056565029 25.704142
0.13384716 -0.05 -0.056307503 25.758323
0.1306089 -0.05 -0.056040933 25.812695
0.12741833 -0.05 -0.055765372 25.865268
0.12427481 -0.05 -0.055481032 25.91684
0.12117773 -0.05 -0.055188059 25.968439
0.11812647 -0.05 -0.054886494 26.01841
0.11512042 -0.05 -0.054576437 26.066668
0.112159 -0.05 -0.054258043 26.113199
0.10924161 -0.05 -0.05393137 26.158402
0.1063677 -0.05 -0.053596533 26.200949
0.10353667 -0.05 -0.053253713 26.243461
0.10074799 -0.05 -0.052902874 26.284806
0.09800112 -0.05 -0.05254409 26.323406
0.095295515 -0.05 -0.052177526 26.361762
0.092630669 -0.05 -0.051803121 26.398581
0.090006063 -0.05 -0.051420958 26.431319
0.08742119 -0.05 -0.051031122 26.463325
0.084875557 -0.05 -0.050633661 26.491496
0.08236868 -0.05 -0.050228634 26.518584
0.079900106 -0.05 -0.049815955 26.541455
0.077469377 -0.05 -0.049395633 26.559966
0.075076031 -0.05 -0.048967757 26.575369
0.072719622 -0.05 -0.048532363 26.589537
0.070399743 -0.05 -0.048089353 26.601341
0.06811598 -0.05 -0.047638703 26.612217
0.065867924 -0.05 -0.047180422 26.62175
0.063655192 -0.05 -0.046714434 26.630223
0.061477415 -0.05 -0.046240667 26.63997
0.059334226 -0.05 -0.045759072 26.651647
0.05722528 -0.05 -0.045269561 26.663841
0.055150228 -0.05 -0.044772109 26.675396
0.05310877 -0.05 -0.04426654 26.68815
0.051100611 -0.05 -0.043752713 26.695014
0.049125446 -0.05 -0.043230572 26.701945
0.047183015 -0.05 -0.042699944 26.706747
0.045273076 -0.05 -0.042160651 26.713899
0.043395425 -0.05 -0.041612424 26.725589
0.041549855 -0.05 -0.041055075 26.743345
0.039736165 -0.05 -0.040488463 26.770676
0.037954212 -0.05 -0.039912305 26.814481
0.036203881 -0.05 -0.039326299 26.864645
0.034485087 -0.05 -0.038730132 26.922118
0.032797769 -0.05 -0.038123493 26.981997
0.031141904 -0.05 -0.037506026 27.044824
0.029517534 -0.05 -0.0368773 27.104992
0.027924714 -0.05 -0.036236931 27.160134
0.026363578 -0.05 -0.035584427 27.209979
0.024834315 -0.05 -0.034919265 27.252232
0.023337169 -0.05 -0.034240926 27.293345
0.021872498 -0.05 -0.033548769 27.337087
0.02044069 -0.05 -0.032842208 27.385849
0.019042291 -0.05 -0.032120498 27.455597
0.017677934 -0.05 -0.031382856 27.544809
0.016348344 -0.05 -0.030628511 27.669373
0.015054434 -0.05 -0.029856583 27.818384
0.013797296 -0.05 -0.02906617 27.984487
0.012578216 -0.05 -0.028256327 28.147674
0.011398704 -0.05 -0.027426003 28.301783
0.010260468 -0.05 -0.026574074 28.430771
0.0091655363 -0.05 -0.025699607 28.52535
0.0081163619 -0.05 -0.024801661 28.564415
0.0071156316 -0.05 -0.023879042 28.523345
0.0061663712 -0.05 -0.022930898 28.382267
0.0052723035 -0.05 -0.021956913 28.131652
0.0044372802 -0.05 -0.020956553 27.724903
0.0036653927 -0.05 -0.019929825 27.131294
0.0029614301 -0.05 -0.018877853 26.315478
0.0023300234 -0.05 -0.017801919 25.234362
0.0017756132 -0.05 -0.016704342 23.843058
0.0013022897 -0.05 -0.01558899 22.11966
0.00091331278 -0.05 -0.014460133 20.054228
0.00061065371 -0.05 -0.013322999 17.650368
0.00039464718 -0.05 -0.012183636 14.877902
0.00026404962 -0.05 -0.011048167 11.683797
0.99625571 -0.05 0.030867034 3.9770417
0.99008558 -0.05 0.029711453 0.88736186
0.98391415 -0.05 0.028562811 1.0810479
0.97774144 -0.05 0.027421082 0.64092757
0.97156748 -0.05 0.02628616 0.89008682
0.9653923 -0.05 0.025157889 0.77355385
0.9592159 -0.05 0.024036286 0.83190598
0.95303831 -0.05 0.022921288 0.80972144
0.94685955 -0.05 0.021812742 0.8294797
0.94067965 -0.05 0.020710565 0.85822733
0.93449863 -0.05 0.01961475 0.90532906
0.92831649 -0.05 0.018525239 0.9176236
0.92213325 -0.05 0.017441956 0.91615475
0.91594893 -0.05 0.016364867 0.89683322
0.90976356 -0.05 0.015293822 0.86407297
0.90357715 -0.05 0.014228824 0.83333631
0.89738972 -0.05 0.013169842 0.79592367
0.89120128 -0.05 0.012116739 0.73705731
0.88501184 -0.05 0.011069505 0.6510604
0.87882139 -0.05 0.010028193 0.52584537
0.87262998 -0.05 0.0089926692 0.31080048
0.86643761 -0.05 0.0079628653 0.37040869
0.86024429 -0.05 0.0069388102 0.62914334
0.85405004 -0.05 0.0059204179 0.81242066
0.84785486 -0.05 0.0049076264 0.97711187
0.84165878 -0.05 0.0039004497 1.139093
0.83546178 -0.05 0.0028989239 1.2993272
0.82926389 -0.05 0.0019028749 1.4622672
0.82306513 -0.05 0.00091234265 1.6276454
0.81686547 -0.05 -7.262622e-05 1.7955101
0.81066495 -0.05 -0.0010521108 1.9661949
0.80446355 -0.05 -0.0020261203 2.139961
0.79826131 -0.05 -0.0029946862 2.3212023
0.79205822 -0.05 -0.003957763 2.5115593
0.7858543 -0.05 -0.0049154371 2.7110196
0.77964953 -0.05 -0.0058676729 2.9174082
0.77344393 -0.05 -0.0068144393 3.1290161
0.7672375 -0.05 -0.0077557964 3.3499051
0.76103025 -0.05 -0.0086917302 3.5806843
0.75482218 -0.05 -0.0096222296 3.8164169
0.74861331 -0.05 -0.010547267 4.0562719
0.74240361 -0.05 -0.011466828 4.3003084
0.73619311 -0.05 -0.012380896 4.5480537
0.72998179 -0.05 -0.013289437 4.7989749
0.72376968 -0.05 -0.014192483 5.0531354
0.71755677 -0.05 -0.015090064 5.311528
0.71134304 -0.05 -0.015982006 5.5726556
0.70512852 -0.05 -0.016868358 5.8371783
0.6989132 -0.05 -0.017749088 6.1061802
0.69269707 -0.05 -0.0186241 6.3776168
0.68648015 -0.05 -0.019493454 6.652469
0.68026243 -0.05 -0.020357049 6.9298995
0.67404391 -0.05 -0.021214895 7.2109832
0.66782458 -0.05 -0.022066878 7.4949144
0.66160444 -0.05 -0.022912896 7.7795035
0.6553835 -0.05 -0.023753035 8.0662301
0.64916176 -0.05 -0.024587207 8.35534
0.64293921 -0.05 -0.025415247 8.6456068
0.63671583 -0.05 -0.026237122 8.936287
0.63049164 -0.05 -0.027052833 9.2281416
0.62426663 -0.05 -0.027862246 9.5203959
0.61804079 -0.05 -0.028665273 9.8147278
0.61181414 -0.05 -0.029461913 10.115245
0.60558665 -0.05 -0.030252021 10.417634
0.59935833 -0.05 -0.031035524 10.720153
0.59312917 -0.05 -0.03181234 11.023048
0.58689916 -0.05 -0.032582377 11.326759
0.58066831 -0.05 -0.033345519 11.632691
0.5744366 -0.05 -0.034101622 11.939185
0.56820404 -0.05 -0.034850654 12.245255
0.56197062 -0.05 -0.035592492 12.548652
0.55573632 -0.05 -0.036326975 12.848573
0.54950116 -0.05 -0.037054031 13.145814
0.54326511 -0.05 -0.037773499 13.440145
0.53702819 -0.05 -0.038485238 13.730167
0.53079037 -0.05 -0.039189179 14.016547
0.52455166 -0.05 -0.039885148 14.298844
0.51831205 -0.05 -0.040573005 14.577726
0.51207153 -0.05 -0.041252581 14.853891
0.5058301 -0.05 -0.04192374 15.127526
0.49958776 -0.05 -0.042586355 15.398902
0.4933445 -0.05 -0.043240233 15.666665
0.48710031 -0.05 -0.043885168 15.930907
0.48085519 -0.05 -0.044521036 16.192485
0.47460913 -0.05 -0.045147698 16.453155
0.46836214 -0.05 -0.045764905 16.712244
0.46211419 -0.05 -0.046372442 16.968904
0.45586531 -0.05 -0.046970147 17.223105
0.44961547 -0.05 -0.047557836 17.475021
0.44336467 -0.05 -0.048135283 17.724951
0.43711292 -0.05 -0.048702248 17.973596
0.43086021 -0.05 -0.04925852 18.221248
0.42460653 -0.05 -0.049803899 18.467934
0.41835189 -0.05 -0.050338138 18.713149
0.41209629 -0.05 -0.050860958 18.956382
0.40583973 -0.05 -0.051372133 19.198065
0.39958221 -0.05 -0.051871377 19.438647
0.39332372 -0.05 -0.052358384 19.67792
0.38706428 -0.05 -0.052832935 19.916878
0.38080389 -0.05 -0.053294789 20.155912
0.37454253 -0.05 -0.053743549 20.393624
0.36828024 -0.05 -0.054178894 20.629284
0.36201701 -0.05 -0.054600581 20.864014
0.35575285 -0.05 -0.055008271 21.098459
0.34948778 -0.05 -0.05540161 21.333009
0.34322181 -0.05 -0.055780208 21.567176
0.33695493 -0.05 -0.056143734 21.800466
0.33068718 -0.05 -0.056491797 22.032431
0.32441857 -0.05 -0.056823972 22.262652
0.31814912 -0.05 -0.057139868 22.494107
0.31187885 -0.05 -0.057439068 22.728425
0.30560778 -0.05 -0.057721137 22.724209
0.29460358 -0.05 0.061928583 23.151278
0.28897188 -0.05 0.061678804 22.794473
0.28342191 -0.05 0.061418064 22.671591
0.27795254 -0.05 0.06114653 22.538676
0.27256263 -0.05 0.060864422 22.414026
0.26725109 -0.05 0.060571989 22.293813
0.26201681 -0.05 0.060269463 22.179031
0.25685872 -0.05 0.059957042 22.069301
0.25177575 -0.05 0.059634971 21.964766
0.24676687 -0.05 0.059303453 21.86553
0.24183104 -0.05 0.058962631 21.770436
0.23696725 -0.05 0.05861274 21.679726
0.23217449 -0.05 0.058253983 21.593229
0.22745178 -0.05 0.057886579 21.510941
0.22279814 -0.05 0.057510734 21.432939
0.21821261 -0.05 0.057126579 21.359035
0.21369425 -0.05 0.056734341 21.289189
0.20924214 -0.05 0.056334203 21.223952
0.20485534 -0.05 0.055926261 21.161844
0.20053297 -0.05 0.055510742 21.103248
0.19627413 -0.05 0.055087824 21.048126
0.19207792 -0.05 0.054657702 20.996667
0.18794351 -0.05 0.054220544 20.949525
0.18387003 -0.05 0.053776398 20.905081
0.17985665 -0.05 0.053325484 20.863889
0.17590254 -0.05 0.05286796 20.826746
0.17200687 -0.05 0.052403951 20.792299
0.16816886 -0.05 0.051933634 20.762018
0.1643877 -0.05 0.051457136 20.734622
0.16066262 -0.05 0.050974564 20.710232
0.15699287 -0.05 0.050486016 20.687677
0.15337766 -0.05 0.049991687 20.667711
0.14981627 -0.05 0.04949166 20.650567
0.14630797 -0.05 0.048986046 20.635642
0.14285203 -0.05 0.048474965 20.623952
0.13944774 -0.05 0.047958483 20.614021
0.13609442 -0.05 0.047436728 20.605999
0.13279137 -0.05 0.046909788 20.599896
0.12953791 -0.05 0.046377803 20.595664
0.12633336 -0.05 0.045840856 20.594281
0.1231771 -0.05 0.045298947 20.59438
0.12006846 -0.05 0.044752232 20.597222
0.11700682 -0.05 0.044200803 20.603976
0.11399154 -0.05 0.043644652 20.611964
0.11102204 -0.05 0.043083827 20.62014
0.10809771 -0.05 0.042518433 20.62806
0.10521795 -0.05 0.041948479 20.636231
0.1023822 -0.05 0.041374033 20.643513
0.099589844 -0.05 0.040795224 20.653495
0.096840365 -0.05 0.040211972 20.665659
0.094133214 -0.05 0.039624306 20.678598
0.091467834 -0.05 0.039032347 20.69439
0.088843726 -0.05 0.038435987 20.711127
0.086260367 -0.05 0.037835267 20.726281
0.083717245 -0.05 0.037230233 20.743429
0.081213864 -0.05 0.036620886 20.759758
0.078749736 -0.05 0.036007248 20.77913
0.076324417 -0.05 0.035389194 20.798074
0.073937451 -0.05 0.034766694 20.815007
0.071588368 -0.05 0.034139799 20.829985
0.069276724 -0.05 0.033508507 20.844435
0.067002119 -0.05 0.032872686 20.857859
0.064764143 -0.05 0.032232278 20.870327
0.062562387 -0.05 0.031587258 20.884322
0.060396478 -0.05 0.030937517 20.899193
0.058266052 -0.05 0.030282955 20.914604
0.056170747 -0.05 0.029623488 20.930218
0.05411023 -0.05 0.028959002 20.945667
0.052084152 -0.05 0.028289444 20.959471
0.05009223 -0.05 0.027614612 20.973237
0.048134183 -0.05 0.026934341 20.980072
0.04620971 -0.05 0.026248549 20.987692
0.044318567 -0.05 0.025557043 20.99524
0.042460526 -0.05 0.024859623 21.001165
0.040635409 -0.05 0.024156007 20.998655
0.038843026 -0.05 0.023445989 20.987543
0.037083186 -0.05 0.022729411 20.97404
0.03535577 -0.05 0.022005981 20.966233
0.033660692 -0.05 0.021275386 20.968479
0.031997891 -0.05 0.020537309 20.9857
0.030367331 -0.05 0.019791432 20.99922
0.028769022 -0.05 0.019037402 21.004472
0.02720304 -0.05 0.018274791 20.992794
0.025669474 -0.05 0.01750322 20.961099
0.024168496 -0.05 0.016722212 20.907548
0.02270034 -0.05 0.015931262 20.844497
0.021265291 -0.05 0.015129872 20.790996
0.019863762 -0.05 0.014317433 20.757197
0.018496186 -0.05 0.013493395 20.726904
0.017163171 -0.05 0.012657059 20.717093
0.015865413 -0.05 0.011807699 20.717393
0.014603701 -0.05 0.010944609 20.748778
0.013379016 -0.05 0.010066986 20.826808
0.012192522 -0.05 0.0091740238 20.995108
0.011045579 -0.05 0.0082648904 21.248156
0.0099397829 -0.05 0.0073386612 21.50517
0.0088769267 -0.05 0.0063943626 21.696041
0.0078591104 -0.05 0.0054312315 21.778703
0.0068888583 -0.05 0.0044485393 21.732519
0.005968947 -0.05 0.0034453193 21.53991
0.0051024632 -0.05 0.0024209769 21.188826
0.0042931433 -0.05 0.0013755083 20.656303
0.0035448699 -0.05 0.00030870349 19.910812
0.0028617195 -0.05 -0.00077908579 18.902237
0.0022483701 -0.05 -0.0018863395 17.592983
0.0017093293 -0.05 -0.0030113913 15.931608
0.0012488276 -0.05 -0.0041515606 13.821906
0.00087061665 -0.05 -0.0053026476 11.081459
0.00057758728 -0.05 -0.0064601256 8.0670421
0.00037126574 -0.05 -0.0076186197 4.4127093
0.00025147878 -0.05 -0.0087720742 4.9662204
0.00021647423 -0.05 -0.0099144923 8.556508
0.996218 -0.05 0.031765596 29.83491
0.98997275 -0.05 0.032400157 39.502471
0.98372678 -0.05 0.033027695 39.465426
0.97748011 -0.05 0.033648237 39.339826
0.97123277 -0.05 0.03426189 39.241505
0.96498477 -0.05 0.034868814 39.119262
0.95873612 -0.05 0.035468992 38.991128
0.95248682 -0.05 0.036062487 38.858216
0.94623692 -0.05 0.036649457 38.723759
0.9399864 -0.05 0.037229985 38.586737
0.9337353 -0.05 0.037804077 38.444189
0.92748361 -0.05 0.038371793 38.29416
0.92123136 -0.05 0.038933212 38.139262
0.91497855 -0.05 0.039488369 37.984592
0.90872519 -0.05 0.040037415 37.834473
0.9024713 -0.05 0.040580348 37.688011
0.89621689 -0.05 0.041117201 37.538944
0.88996197 -0.05 0.04164811 37.381526
0.88370655 -0.05 0.042173088 37.216985
0.87745063 -0.05 0.042692079 37.050595
0.87119423 -0.05 0.043205222 36.884115
0.86493735 -0.05 0.043712586 36.708308
0.85868 -0.05 0.04421414 36.514821
0.85242221 -0.05 0.044709974 36.3111
0.84616396 -0.05 0.04520015 36.104943
0.83990528 -0.05 0.045684654 35.898944
0.83364615 -0.05 0.04616345 35.692872
0.8273866 -0.05 0.046636715 35.487021
0.82112664 -0.05 0.047104409 35.28065
0.81486626 -0.05 0.047566484 35.072429
0.80860548 -0.05 0.048023022 34.863171
0.80234428 -0.05 0.048474031 34.653254
0.7960827 -0.05 0.048919544 34.44348
0.78982073 -0.05 0.049359517 34.234243
0.78355837 -0.05 0.049794035 34.026178
0.77729564 -0.05 0.050223064 33.817515
0.77103253 -0.05 0.050646573 33.607576
0.76476906 -0.05 0.051064623 33.396432
0.75850522 -0.05 0.051477199 33.18328
0.75224102 -0.05 0.051884292 32.966672
0.74597647 -0.05 0.052285874 32.744397
0.73971156 -0.05 0.05268193 32.518882
0.73344631 -0.05 0.053072445 32.292806
0.72718072 -0.05 0.053457384 32.067716
0.72091478 -0.05 0.05383678 31.843481
0.71464852 -0.05 0.054210665 31.620295
0.70838191 -0.05 0.054578861 31.397718
0.70211498 -0.05 0.054941421 31.176769
0.69584772 -0.05 0.055298312 30.959562
0.68958014 -0.05 0.055649438 30.747633
0.68331224 -0.05 0.055994857 30.545509
0.67704402 -0.05 0.056334471 30.352339
0.67077548 -0.05 0.05666829 30.164872
0.66450665 -0.05 0.056996199 29.980729
0.65823749 -0.05 0.057318096 29.798601
0.65196804 -0.05 0.057634067 29.619433
0.64569828 -0.05 0.057944025 29.442873
0.63942823 -0.05 0.058247804 29.268196
0.63315787 -0.05 0.058545371 29.095321
0.62688722 -0.05 0.05883673 28.92473
0.62061629 -0.05 0.059121742 28.75595
0.61434506 -0.05 0.059400323 28.58896
0.60807355 -0.05 0.059672469 28.424283
0.60180176 -0.05 0.059938036 28.261525
0.5955297 -0.05 0.060196952 28.100475
0.58925735 -0.05 0.060449134 27.941648
0.58298473 -0.05 0.06069449 27.784928
0.57671185 -0.05 0.060932905 27.630343
0.57043871 -0.05 0.061164234 27.477193
0.5641653 -0.05 0.061388445 27.326464
0.55789164 -0.05 0.061605414 27.177811
0.55161773 -0.05 0.061814982 27.031045
0.54534358 -0.05 0.062017077 26.886358
0.53906918 -0.05 0.062211536 26.743786
0.53279455 -0.05 0.062398219 26.602886
0.52651968 -0.05 0.062577057 26.464264
0.5202446 -0.05 0.062747877 26.32758
0.51396929 -0.05 0.062910537 26.19315
0.50769378 -0.05 0.06306487 26.060545
0.50141806 -0.05 0.063210738 25.929934
0.49514216 -0.05 0.063348018 25.801615
0.48886606 -0.05 0.063476512 25.675433
0.48258979 -0.05 0.063596018 25.550969
0.47631335 -0.05 0.06370641 25.428742
0.47003675 -0.05 0.063807552 25.309044
0.46376002 -0.05 0.063899192 25.191592
0.45748314 -0.05 0.063981117 25.075994
0.45120615 -0.05 0.064053164 24.962639
0.44492904 -0.05 0.064115152 24.851444
0.43865184 -0.05 0.064166854 24.742724
0.43237457 -0.05 0.06420803 24.635831
0.42609724 -0.05 0.06423847 24.531087
0.41981985 -0.05 0.064257977 24.428557
0.41354245 -0.05 0.0642663 24.328534
0.40726503 -0.05 0.064263163 24.230373
0.40098765 -0.05 0.064248343 24.134689
0.39471029 -0.05 0.064221554 24.040956
0.38843301 -0.05 0.064182488 23.949268
0.38215581 -0.05 0.06413093 23.860009
0.37587873 -0.05 0.064066642 23.774127
0.3696018 -0.05 0.063989225 23.690418
0.36332505 -0.05 0.063898361 23.609372
0.35704852 -0.05 0.063793808 23.531471
0.35077222 -0.05 0.063675231 23.457104
0.34449622 -0.05 0.063542275 23.386395
0.33822055 -0.05 0.063394554 23.319525
0.33194526 -0.05 0.06323174 23.256529
0.32567039 -0.05 0.063053444 23.197367
0.31939599 -0.05 0.062859243 23.140501
0.31312211 -0.05 0.06264875 23.085964
0.30684882 -0.05 0.062421551 23.04394
0.30057616 -0.05 0.062177215 23.233677
