# p  FACE_DATA 448
# x y z  p
0.29693749 -0.05 -0.060178906 99314.324
0.29130037 -0.05 -0.060144513 99317.369
0.28574448 -0.05 -0.060096046 99320.785
0.28026873 -0.05 -0.060033714 99324.469
0.27487198 -0.05 -0.059957777 99328.322
0.26955314 -0.05 -0.059868529 99332.382
0.26431112 -0.05 -0.059766242 99336.596
0.25914486 -0.05 -0.059651156 99340.997
0.25405331 -0.05 -0.059523557 99345.398
0.24903541 -0.05 -0.059383688 99349.994
0.24409016 -0.05 -0.059231728 99354.738
0.23921655 -0.05 -0.059067953 99359.552
0.23441359 -0.05 -0.058892604 99364.453
0.22968028 -0.05 -0.058705939 99369.352
0.22501567 -0.05 -0.058508199 99374.346
0.22041882 -0.05 -0.058299553 99379.459
0.21588877 -0.05 -0.058080262 99384.511
0.21142461 -0.05 -0.057850546 99389.686
0.20702544 -0.05 -0.057610535 99394.951
0.20269034 -0.05 -0.057360491 99400.22
0.19841845 -0.05 -0.057100627 99405.578
0.19420888 -0.05 -0.056831169 99410.855
0.19006078 -0.05 -0.056552319 99416.207
0.18597331 -0.05 -0.056264159 99421.691
0.18194562 -0.05 -0.055966939 99427.089
0.17797691 -0.05 -0.055660848 99432.634
0.17406636 -0.05 -0.055346045 99438.13
0.17021318 -0.05 -0.055022733 99443.687
0.16641657 -0.05 -0.054691073 99449.21
0.16267578 -0.05 -0.054351201 99454.862
0.15899003 -0.05 -0.054003243 99460.534
0.15535857 -0.05 -0.053647424 99466.188
0.15178068 -0.05 -0.053283854 99471.941
0.14825563 -0.05 -0.052912673 99477.674
0.14478268 -0.05 -0.052534029 99483.498
0.14136114 -0.05 -0.052148012 99489.384
0.13799032 -0.05 -0.051754779 99495.307
0.13466955 -0.05 -0.051354444 99501.328
0.13139813 -0.05 -0.050947174 99507.28
0.12817541 -0.05 -0.050533075 99513.377
0.12500075 -0.05 -0.050112173 99519.575
0.12187349 -0.05 -0.049684647 99525.721
0.11879301 -0.05 -0.049250617 99531.958
0.11575869 -0.05 -0.048810095 99538.315
0.11276992 -0.05 -0.048363154 99544.755
0.10982612 -0.05 -0.047909921 99551.234
0.10692669 -0.05 -0.047450429 99557.941
0.10407105 -0.05 -0.046984764 99564.612
0.10125862 -0.05 -0.046513083 99571.359
0.09848886 -0.05 -0.046035324 99578.373
0.09576123 -0.05 -0.045551537 99585.398
0.093075176 -0.05 -0.045061862 99592.53
0.090430196 -0.05 -0.044566213 99599.989
0.087825768 -0.05 -0.044064651 99607.492
0.085261383 -0.05 -0.043557239 99615.285
0.082736546 -0.05 -0.043044 99623.097
0.080250768 -0.05 -0.042524973 99631.17
0.077803603 -0.05 -0.042000048 99639.545
0.075394593 -0.05 -0.041469217 99648.188
0.073023269 -0.05 -0.040932545 99656.962
0.07068919 -0.05 -0.040390049 99665.989
0.06839195 -0.05 -0.039841613 99675.395
0.066131136 -0.05 -0.039287193 99685.089
0.06390634 -0.05 -0.038726781 99695.172
0.061717184 -0.05 -0.038160282 99705.708
0.059563301 -0.05 -0.037587607 99716.687
0.057444328 -0.05 -0.037008691 99728.099
0.055359923 -0.05 -0.036423429 99739.882
0.053309738 -0.05 -0.035831783 99751.878
0.051293485 -0.05 -0.035233561 99764.437
0.049310873 -0.05 -0.03462861 99777.358
0.047361598 -0.05 -0.03401686 99790.974
0.045445411 -0.05 -0.033398125 99805.252
0.043562078 -0.05 -0.032772217 99820.322
0.041711407 -0.05 -0.032138858 99836.043
0.0398932 -0.05 -0.031497852 99852.15
0.038107263 -0.05 -0.030849046 99868.961
0.036353464 -0.05 -0.030192154 99886.938
0.034631705 -0.05 -0.029526867 99906.087
0.032941915 -0.05 -0.02885287 99926.557
0.031284043 -0.05 -0.028169847 99947.802
0.029658087 -0.05 -0.027477444 99969.623
0.028064108 -0.05 -0.026775231 99992.707
0.026502178 -0.05 -0.026062827 100017.92
0.024972451 -0.05 -0.025339747 100045.44
0.023475143 -0.05 -0.024605477 100074.74
0.022010519 -0.05 -0.023859511 100105.05
0.020578966 -0.05 -0.023101222 100137.49
0.0191809 -0.05 -0.022330044 100172.97
0.0178169 -0.05 -0.021545258 100211.1
0.016487634 -0.05 -0.020746111 100251.53
0.015193861 -0.05 -0.019931865 100294.56
0.013936534 -0.05 -0.019101682 100340.21
0.012716784 -0.05 -0.018254711 100391.66
0.011535938 -0.05 -0.017390071 100450
0.010395555 -0.05 -0.016506774 100516.17
0.0092973902 -0.05 -0.015603781 100589.49
0.008243513 -0.05 -0.014680247 100670.03
0.0072364176 -0.05 -0.013735349 100756.99
0.006278842 -0.05 -0.012768014 100849.18
0.0053738477 -0.05 -0.011777531 100945.42
0.0045251681 -0.05 -0.010763753 101048.92
0.0037366753 -0.05 -0.0097263213 101159.98
0.0030124558 -0.05 -0.0086654318 101275.99
0.0023572427 -0.05 -0.0075824248 101394.9
0.0017756037 -0.05 -0.0064787933 101513.75
0.0012718689 -0.05 -0.005357054 101628.06
0.00084994745 -0.05 -0.0042212604 101732.46
0.00051290116 -0.05 -0.0030758254 101820.87
0.00026246053 -0.05 -0.0019260616 101891.54
9.8683853e-05 -0.05 -0.000778027 101939.64
2.0049394e-05 -0.05 0.00036221923 101960.95
0.99688684 -0.05 -0.0032270046 99987.192
0.9906704 -0.05 -0.0040997538 99895.845
0.98445297 -0.05 -0.004965512 99867.771
0.97823458 -0.05 -0.0058243061 99844.425
0.97201525 -0.05 -0.0066762422 99829.603
0.965795 -0.05 -0.0075214789 99819.17
0.95957384 -0.05 -0.0083599993 99812.343
0.95335179 -0.05 -0.0091918667 99808.132
0.94712889 -0.05 -0.010017236 99805.94
0.94090512 -0.05 -0.010836193 99805.329
0.93468052 -0.05 -0.01164874 99806.178
0.92845509 -0.05 -0.01245494 99808.17
0.92222886 -0.05 -0.013254867 99811.235
0.91600183 -0.05 -0.014048558 99815.091
0.90977402 -0.05 -0.014836165 99819.673
0.90354545 -0.05 -0.015617683 99825.018
0.89731612 -0.05 -0.016393144 99830.966
0.89108606 -0.05 -0.017162685 99837.265
0.88485527 -0.05 -0.01792632 99844.112
0.87862374 -0.05 -0.018683991 99851.35
0.87239152 -0.05 -0.019435837 99858.854
0.86615861 -0.05 -0.020181924 99866.545
0.859925 -0.05 -0.020922227 99874.475
0.85369071 -0.05 -0.021656828 99882.383
0.84745577 -0.05 -0.022385794 99890.504
0.84122018 -0.05 -0.023109109 99898.561
0.83498392 -0.05 -0.023826737 99906.805
0.82874702 -0.05 -0.024538853 99914.533
0.8225095 -0.05 -0.025245418 99922.571
0.81627136 -0.05 -0.025946386 99930.123
0.81003258 -0.05 -0.026641834 99937.607
0.8037932 -0.05 -0.027331775 99944.436
0.79755322 -0.05 -0.028016238 99951.365
0.79131263 -0.05 -0.028695179 99957.732
0.78507146 -0.05 -0.029368684 99963.861
0.7788297 -0.05 -0.030036719 99969.223
0.77258735 -0.05 -0.030699252 99974.532
0.76634442 -0.05 -0.031356344 99979.05
0.76010092 -0.05 -0.03200798 99983.153
0.75385685 -0.05 -0.032654151 99986.164
0.74761222 -0.05 -0.033294829 99989.06
0.74136703 -0.05 -0.033929998 99991.051
0.73512128 -0.05 -0.034559643 99992.639
0.72887496 -0.05 -0.035183729 99993.115
0.7226281 -0.05 -0.035802291 99993.239
0.71638071 -0.05 -0.036415355 99992.372
0.71013275 -0.05 -0.03702275 99991.015
0.70388425 -0.05 -0.037624525 99988.258
0.6976352 -0.05 -0.038220646 99985.321
0.69138561 -0.05 -0.038811021 99981.287
0.68513549 -0.05 -0.039395705 99976.645
0.67888483 -0.05 -0.039974599 99970.918
0.67263363 -0.05 -0.040547716 99964.562
0.6663819 -0.05 -0.041114937 99957.489
0.66012963 -0.05 -0.041676163 99949.583
0.65387683 -0.05 -0.04223148 99940.637
0.6476235 -0.05 -0.042780799 99930.954
0.64136963 -0.05 -0.043323955 99920.564
0.63511522 -0.05 -0.043860916 99909.278
0.6288603 -0.05 -0.044391683 99897.221
0.62260483 -0.05 -0.04491612 99884.382
0.61634883 -0.05 -0.04543414 99870.866
0.6100923 -0.05 -0.045945742 99856.392
0.60383524 -0.05 -0.046450781 99841.545
0.59757764 -0.05 -0.046949184 99825.595
0.59131952 -0.05 -0.047440867 99809.225
0.58506086 -0.05 -0.047925742 99791.971
0.57880167 -0.05 -0.048403689 99774.522
0.57254194 -0.05 -0.048874567 99756.302
0.56628169 -0.05 -0.04933834 99737.779
0.5600209 -0.05 -0.049794888 99718.791
0.55375958 -0.05 -0.05024405 99699.783
0.54749773 -0.05 -0.050685752 99680.218
0.54123535 -0.05 -0.051119834 99660.732
0.53497243 -0.05 -0.051546156 99641.051
0.52870898 -0.05 -0.051964645 99621.514
0.52244501 -0.05 -0.052375131 99602.01
0.51618051 -0.05 -0.052777472 99582.719
0.50991547 -0.05 -0.0531715 99563.731
0.50364991 -0.05 -0.053557077 99545.023
0.49738384 -0.05 -0.053934079 99526.736
0.49111724 -0.05 -0.05430231 99508.884
0.48485011 -0.05 -0.054661564 99491.706
0.47858247 -0.05 -0.055011719 99474.878
0.47231433 -0.05 -0.055352635 99458.872
0.46604568 -0.05 -0.055684063 99443.504
0.45977652 -0.05 -0.056005788 99428.965
0.45350686 -0.05 -0.056317647 99414.979
0.44723671 -0.05 -0.056619458 99401.987
0.44096607 -0.05 -0.056910994 99389.688
0.43469495 -0.05 -0.057192014 99378.372
0.42842337 -0.05 -0.057462309 99367.685
0.42215132 -0.05 -0.057721681 99358.009
0.41587881 -0.05 -0.057969877 99349.037
0.40960587 -0.05 -0.058206624 99340.862
0.4033325 -0.05 -0.058431693 99333.252
0.39705871 -0.05 -0.058644801 99326.674
0.39078451 -0.05 -0.058845638 99320.814
0.38450993 -0.05 -0.059033991 99315.843
0.37823498 -0.05 -0.059209617 99311.498
0.37195968 -0.05 -0.059372119 99308.216
0.36568404 -0.05 -0.059521176 99305.57
0.35940809 -0.05 -0.059656545 99303.594
0.35313185 -0.05 -0.059777892 99302.154
0.34685536 -0.05 -0.059884859 99301.445
0.34057863 -0.05 -0.05997706 99301.336
0.3343017 -0.05 -0.060054164 99301.723
0.3280246 -0.05 -0.060115782 99302.733
0.32174736 -0.05 -0.060161487 99304.215
0.31547002 -0.05 -0.060190893 99306.218
0.30919262 -0.05 -0.060203583 99308.421
0.30291522 -0.05 -0.060199123 99311.035
0.29738375 -0.05 0.059828169 99261.29
0.29174651 -0.05 0.0598357 99264.594
0.28619043 -0.05 0.059828553 99268.062
0.28071436 -0.05 0.059806945 99271.969
0.2753172 -0.05 0.059771146 99276.025
0.26999784 -0.05 0.059721457 99280.31
0.2647552 -0.05 0.059658157 99284.668
0.25958823 -0.05 0.059581496 99289.222
0.25449587 -0.05 0.059491767 99293.723
0.24947707 -0.05 0.059389218 99298.376
0.24453083 -0.05 0.059274041 99303.181
0.23965613 -0.05 0.059146516 99308.054
0.234852 -0.05 0.05900689 99313.004
0.23011744 -0.05 0.058855432 99317.898
0.22545149 -0.05 0.058692388 99322.905
0.22085321 -0.05 0.058517935 99328.046
0.21632166 -0.05 0.058332339 99333.113
0.21185592 -0.05 0.05813583 99338.26
0.20745507 -0.05 0.057928542 99343.512
0.20311823 -0.05 0.057710746 99348.804
0.19884453 -0.05 0.057482658 99354.207
0.19463308 -0.05 0.057244513 99359.472
0.19048302 -0.05 0.056996521 99364.736
0.18639351 -0.05 0.056738768 99370.05
0.18236373 -0.05 0.05647151 99375.161
0.17839285 -0.05 0.056194942 99380.455
0.17448007 -0.05 0.055909229 99385.754
0.17062459 -0.05 0.055614583 99391.107
0.16682562 -0.05 0.055311168 99396.37
0.1630824 -0.05 0.054999125 99401.759
0.15939417 -0.05 0.054678588 99407.21
0.15576017 -0.05 0.054349785 99412.706
0.15217967 -0.05 0.054012834 99418.428
0.14865194 -0.05 0.05366788 99424.123
0.14517627 -0.05 0.053315074 99429.935
0.14175197 -0.05 0.052954513 99435.807
0.13837832 -0.05 0.05258636 99441.722
0.13505466 -0.05 0.052210732 99447.738
0.1317803 -0.05 0.051827803 99453.616
0.12855459 -0.05 0.051437683 99459.663
0.12537689 -0.05 0.051040402 99465.872
0.12224654 -0.05 0.050636146 99471.968
0.11916291 -0.05 0.050225037 99478.139
0.1161254 -0.05 0.049807093 99484.46
0.1131334 -0.05 0.049382392 99490.885
0.1101863 -0.05 0.048951066 99497.301
0.10728353 -0.05 0.048513148 99504.033
0.10442451 -0.05 0.048068735 99510.647
0.10160865 -0.05 0.047617982 99517.27
0.098835413 -0.05 0.047160834 99524.266
0.096104261 -0.05 0.046697346 99531.195
0.09341464 -0.05 0.046227661 99538.158
0.090766046 -0.05 0.045751696 99545.591
0.08815796 -0.05 0.045269517 99552.93
0.085589872 -0.05 0.04478119 99560.549
0.083061288 -0.05 0.044286743 99567.951
0.080571719 -0.05 0.043786217 99575.623
0.078120718 -0.05 0.043279507 99583.745
0.075707826 -0.05 0.042766605 99592.131
0.073332578 -0.05 0.042247583 99600.485
0.070994529 -0.05 0.041722461 99608.984
0.068693273 -0.05 0.041191125 99617.924
0.066428398 -0.05 0.040653533 99627.015
0.064199496 -0.05 0.040109682 99636.339
0.062006188 -0.05 0.039559479 99646.02
0.059848106 -0.05 0.039002838 99656.03
0.057724885 -0.05 0.038439698 99666.376
0.055636186 -0.05 0.037869954 99677.151
0.053581658 -0.05 0.037293571 99688.051
0.051561011 -0.05 0.036710362 99699.762
0.049573954 -0.05 0.036120171 99711.803
0.047620184 -0.05 0.035522934 99724.308
0.045699449 -0.05 0.034918468 99737.234
0.043811512 -0.05 0.034306583 99750.772
0.041956183 -0.05 0.033687005 99765.236
0.040133259 -0.05 0.033059538 99780.525
0.038342545 -0.05 0.032424032 99796.512
0.03658391 -0.05 0.031780202 99813.186
0.034857252 -0.05 0.031127737 99830.705
0.033162495 -0.05 0.030466326 99849.524
0.03149959 -0.05 0.029795652 99869.223
0.02986853 -0.05 0.029115361 99890.409
0.028269372 -0.05 0.028425021 99913.028
0.026702187 -0.05 0.027724252 99937.049
0.025167125 -0.05 0.027012569 99962.928
0.023664397 -0.05 0.026289455 99990.652
0.022194266 -0.05 0.025554401 100020.48
0.020757114 -0.05 0.02480678 100052.77
0.019353351 -0.05 0.024046021 100087.4
0.017983552 -0.05 0.023271401 100125.28
0.01664838 -0.05 0.022482161 100166.29
0.015348588 -0.05 0.021677559 100211.06
0.01408512 -0.05 0.02085675 100259.87
0.012859105 -0.05 0.020018874 100313.19
0.011671862 -0.05 0.01916304 100371.15
0.010524941 -0.05 0.018288248 100435.02
0.0094200915 -0.05 0.017393446 100505.75
0.0083593752 -0.05 0.016477776 100583.36
0.0073452804 -0.05 0.015540394 100667.45
0.0063805373 -0.05 0.014580208 100759.82
0.0054682018 -0.05 0.013596482 100859.47
0.0046120063 -0.05 0.012589044 100967.09
0.0038158199 -0.05 0.011557505 101082.09
0.0030837307 -0.05 0.010502031 101202.86
0.0024204815 -0.05 0.0094239264 101327.36
0.0018306509 -0.05 0.0083246511 101452.76
0.0013185876 -0.05 0.0072066891 101574.87
0.00088823098 -0.05 0.0060740647 101687.89
0.00054267545 -0.05 0.0049311681 101785.63
0.00028369099 -0.05 0.0037832986 101865.24
0.00011138095 -0.05 0.0026365137 101923.79
2.4268685e-05 -0.05 0.0014968838 101955.9
0.99689018 -0.05 -0.0023276585 99739.553
0.9906804 -0.05 -0.0014087019 99698.001
0.98446959 -0.05 -0.00049672884 99719.935
0.97825776 -0.05 0.00040828738 99721.133
0.97204493 -0.05 0.0013064529 99721.562
0.96583114 -0.05 0.0021979261 99723.276
0.95961639 -0.05 0.0030826898 99724.984
0.95340071 -0.05 0.0039608074 99727.178
0.94718411 -0.05 0.0048324338 99729.716
0.94096661 -0.05 0.0056976531 99732.775
0.93474822 -0.05 0.0065564705 99736.295
0.92852896 -0.05 0.0074089459 99740.593
0.92230885 -0.05 0.008255156 99745.385
0.91608789 -0.05 0.0090951355 99750.768
0.90986611 -0.05 0.0099290352 99756.492
0.90364352 -0.05 0.010756853 99762.829
0.89742013 -0.05 0.01157862 99769.503
0.89119596 -0.05 0.012394474 99776.538
0.88497103 -0.05 0.013204425 99783.703
0.87874531 -0.05 0.014008419 99791.178
0.87251886 -0.05 0.014806593 99798.738
0.86629165 -0.05 0.015599014 99806.505
0.86006373 -0.05 0.016385655 99814.335
0.85383508 -0.05 0.017166601 99822.435
0.84760573 -0.05 0.017941915 99830.516
0.84137569 -0.05 0.018711584 99838.763
0.83514494 -0.05 0.019475571 99846.699
0.82891352 -0.05 0.020234051 99854.777
0.82268143 -0.05 0.020986985 99862.646
0.81644866 -0.05 0.021734326 99870.29
0.81021524 -0.05 0.022476153 99877.481
0.80398115 -0.05 0.023212476 99884.689
0.79774643 -0.05 0.023943327 99891.484
0.79151107 -0.05 0.02466866 99898.071
0.78527508 -0.05 0.025388562 99903.973
0.77903845 -0.05 0.026102999 99909.683
0.77280121 -0.05 0.026811938 99914.774
0.76656334 -0.05 0.02751544 99919.107
0.76032486 -0.05 0.028213491 99922.81
0.75408576 -0.05 0.028906081 99926.05
0.74784607 -0.05 0.029593182 99928.558
0.74160578 -0.05 0.030274778 99930.746
0.73536488 -0.05 0.030950856 99931.806
0.72912338 -0.05 0.031621379 99932.731
0.7228813 -0.05 0.03228638 99932.758
0.71663863 -0.05 0.03294589 99932.138
0.71039536 -0.05 0.033599733 99930.326
0.70415151 -0.05 0.034247962 99928.014
0.69790707 -0.05 0.034890541 99924.903
0.69166204 -0.05 0.035527376 99921.157
0.68541644 -0.05 0.036158527 99916.349
0.67917026 -0.05 0.036783891 99911.046
0.6729235 -0.05 0.037403481 99904.881
0.66667615 -0.05 0.038017181 99897.847
0.66042823 -0.05 0.03862489 99889.975
0.65417973 -0.05 0.039226693 99881.146
0.64793066 -0.05 0.039822502 99871.474
0.64168101 -0.05 0.040412153 99861.002
0.63543077 -0.05 0.040995613 99849.545
0.62917995 -0.05 0.041572883 99837.331
0.62292857 -0.05 0.042143827 99824.626
0.61667659 -0.05 0.042708359 99811.253
0.61042404 -0.05 0.043266476 99797.305
0.6041709 -0.05 0.043818034 99782.469
0.59791719 -0.05 0.044362961 99766.972
0.5916629 -0.05 0.044901173 99750.778
0.58540802 -0.05 0.045432579 99734.206
0.57915255 -0.05 0.045957063 99716.967
0.5728965 -0.05 0.046474481 99699.367
0.56663987 -0.05 0.046984799 99681.152
0.56038266 -0.05 0.047487895 99662.943
0.55412484 -0.05 0.04798361 99644.087
0.54786645 -0.05 0.04847187 99624.96
0.54160747 -0.05 0.048952512 99605.605
0.5353479 -0.05 0.049425398 99586.206
0.52908774 -0.05 0.049890458 99566.656
0.52282699 -0.05 0.050347518 99547.286
0.51656565 -0.05 0.050796437 99528.059
0.51030372 -0.05 0.051237046 99509.09
0.5040412 -0.05 0.051669209 99490.339
0.4977781 -0.05 0.052092802 99471.94
0.49151442 -0.05 0.052507627 99454.093
0.48525013 -0.05 0.052913479 99436.763
0.47898528 -0.05 0.053310236 99420.072
0.47271984 -0.05 0.053697759 99403.977
0.46645383 -0.05 0.054075798 99388.507
0.46018723 -0.05 0.054444137 99373.7
0.45392007 -0.05 0.054802615 99359.788
0.44765233 -0.05 0.055151049 99346.559
0.44138404 -0.05 0.055489211 99334.355
0.43511519 -0.05 0.055816862 99322.675
0.42884578 -0.05 0.056133791 99312.194
0.42257583 -0.05 0.0564398 99302.417
0.41630534 -0.05 0.056734639 99293.532
0.41003434 -0.05 0.05701803 99285.225
0.40376281 -0.05 0.057289748 99277.979
0.39749078 -0.05 0.057549508 99271.519
0.39121825 -0.05 0.057797002 99266.005
0.38494525 -0.05 0.058032013 99261.113
0.37867178 -0.05 0.0582543 99257.06
0.37239786 -0.05 0.058463467 99253.776
0.3661235 -0.05 0.058659191 99251.043
0.35984874 -0.05 0.058841232 99249.134
0.35357357 -0.05 0.059009251 99247.794
0.34729804 -0.05 0.059162894 99247.102
0.34102217 -0.05 0.059301771 99247.073
0.33474599 -0.05 0.059425554 99247.475
0.32846951 -0.05 0.059533853 99248.602
0.32219279 -0.05 0.059626241 99250.202
0.31591584 -0.05 0.05970233 99252.339
0.30963872 -0.05 0.059761704 99254.761
0.30336145 -0.05 0.05980393 99257.794
