# wallShearStress  FACE_DATA 448
# x y z  wallShearStress_x wallShearStress_y wallShearStress_z
0.29693749 -0.05 -0.060178906 -10.771542 1.0749834e-17 0.056996945
0.29130037 -0.05 -0.060144513 -10.521483 -6.8784705e-18 0.080999141
0.28574448 -0.05 -0.060096046 -10.293455 -1.4555024e-17 0.10538411
0.28026873 -0.05 -0.060033714 -10.072249 1.2662984e-17 0.12923491
0.27487198 -0.05 -0.059957777 -9.8591956 -4.5149003e-17 0.15241488
0.26955314 -0.05 -0.059868529 -9.6540827 -9.2750604e-17 0.17563367
0.26431112 -0.05 -0.059766242 -9.4564245 1.2825736e-16 0.19813769
0.25914486 -0.05 -0.059651156 -9.2659478 -2.0317445e-16 0.22003519
0.25405331 -0.05 -0.059523557 -9.0824397 -1.5141711e-16 0.24119558
0.24903541 -0.05 -0.059383688 -8.9055973 -1.7001293e-16 0.26196193
0.24409016 -0.05 -0.059231728 -8.7342521 5.3666559e-17 0.28202671
0.23921655 -0.05 -0.059067953 -8.5684497 1.4001257e-16 0.30148228
0.23441359 -0.05 -0.058892604 -8.4073076 -1.0834677e-18 0.32033197
0.22968028 -0.05 -0.058705939 -8.249576 -1.7866846e-16 0.33860218
0.22501567 -0.05 -0.058508199 -8.0949844 -3.2341767e-17 0.35647814
0.22041882 -0.05 -0.058299553 -7.9451616 4.278949e-16 0.37398748
0.21588877 -0.05 -0.058080262 -7.8001922 -1.2031185e-16 0.39097688
0.21142461 -0.05 -0.057850546 -7.6603563 -2.5646812e-16 0.40778984
0.20702544 -0.05 -0.057610535 -7.5244495 -6.6821506e-16 0.4241388
0.20269034 -0.05 -0.057360491 -7.3928617 -3.0452409e-16 0.44008617
0.19841845 -0.05 -0.057100627 -7.2657104 -3.1221103e-17 0.45576859
0.19420888 -0.05 -0.056831169 -7.1428849 -2.7068535e-16 0.47110486
0.19006078 -0.05 -0.056552319 -7.0246364 2.749785e-16 0.48639552
0.18597331 -0.05 -0.056264159 -6.9097053 4.6550208e-16 0.50138962
0.18194562 -0.05 -0.055966939 -6.7983347 -1.3998857e-16 0.51602803
0.17797691 -0.05 -0.055660848 -6.6910653 3.7673323e-16 0.53065377
0.17406636 -0.05 -0.055346045 -6.5869338 2.9320254e-16 0.54493512
0.17021318 -0.05 -0.055022733 -6.48682 -7.8441241e-17 0.55921058
0.16641657 -0.05 -0.054691073 -6.3901578 3.9434052e-16 0.57336326
0.16267578 -0.05 -0.054351201 -6.2969619 4.1544154e-16 0.58753812
0.15899003 -0.05 -0.054003243 -6.2065259 5.1468653e-16 0.60147067
0.15535857 -0.05 -0.053647424 -6.1196412 3.8095015e-16 0.61542022
0.15178068 -0.05 -0.053283854 -6.036133 4.3990233e-16 0.62948625
0.14825563 -0.05 -0.052912673 -5.9555867 2.4681947e-18 0.64347756
0.14478268 -0.05 -0.052534029 -5.8782795 -1.0633789e-16 0.65765174
0.14136114 -0.05 -0.052148012 -5.8035324 3.5117364e-16 0.67179101
0.13799032 -0.05 -0.051754779 -5.7316196 5.4199218e-16 0.68600437
0.13466955 -0.05 -0.051354444 -5.6625384 -3.2898276e-16 0.70030842
0.13139813 -0.05 -0.050947174 -5.5964011 -2.5827443e-16 0.71472478
0.12817541 -0.05 -0.050533075 -5.533517 5.5887975e-16 0.72956737
0.12500075 -0.05 -0.050112173 -5.4726137 1.5436231e-16 0.74439553
0.12187349 -0.05 -0.049684647 -5.4145394 -4.4041692e-16 0.75939873
0.11879301 -0.05 -0.049250617 -5.3598219 2.867046e-17 0.77497075
0.11575869 -0.05 -0.048810095 -5.3073965 3.6415021e-16 0.79082174
0.11276992 -0.05 -0.048363154 -5.2573116 2.5105425e-16 0.80693155
0.10982612 -0.05 -0.047909921 -5.2099139 1.8225364e-16 0.8234677
0.10692669 -0.05 -0.047450429 -5.1649189 3.0476839e-16 0.84050339
0.10407105 -0.05 -0.046984764 -5.1219251 2.6914313e-16 0.85776297
0.10125862 -0.05 -0.046513083 -5.0824147 7.4996436e-17 0.87596239
0.09848886 -0.05 -0.046035324 -5.0451045 2.2360624e-16 0.89466707
0.09576123 -0.05 -0.045551537 -5.0096754 4.82666e-16 0.9137246
0.093075176 -0.05 -0.045061862 -4.9777327 3.6665442e-16 0.93390587
0.090430196 -0.05 -0.044566213 -4.9480877 -3.3513702e-16 0.95473262
0.087825768 -0.05 -0.044064651 -4.920282 1.9517273e-16 0.97605489
0.085261383 -0.05 -0.043557239 -4.89602 4.1538605e-16 0.99849923
0.082736546 -0.05 -0.043044 -4.8745124 -1.5589446e-16 1.0218544
0.080250768 -0.05 -0.042524973 -4.8572059 -2.9170111e-16 1.0468562
0.077803603 -0.05 -0.042000048 -4.8422494 7.621067e-17 1.0728122
0.075394593 -0.05 -0.041469217 -4.8297331 -4.6654279e-16 1.099705
0.073023269 -0.05 -0.040932545 -4.8204996 3.8421192e-16 1.1280398
0.07068919 -0.05 -0.040390049 -4.8151833 7.73347e-16 1.1583551
0.06839195 -0.05 -0.039841613 -4.8126253 -2.5091686e-16 1.1902066
0.066131136 -0.05 -0.039287193 -4.8124725 -4.2465385e-16 1.2236032
0.06390634 -0.05 -0.038726781 -4.8152693 7.59675e-17 1.2589982
0.061717184 -0.05 -0.038160282 -4.8202079 -7.2504546e-16 1.2961342
0.059563301 -0.05 -0.037587607 -4.8269137 9.8921042e-17 1.334911
0.057444328 -0.05 -0.037008691 -4.8354443 3.7077107e-16 1.3754308
0.055359923 -0.05 -0.036423429 -4.8458988 -4.0752015e-16 1.4177636
0.053309738 -0.05 -0.035831783 -4.8586217 -1.8762995e-18 1.4625716
0.051293485 -0.05 -0.035233561 -4.8735723 -8.6335546e-17 1.509928
0.049310873 -0.05 -0.03462861 -4.8879702 4.0312483e-16 1.5589812
0.047361598 -0.05 -0.03401686 -4.903217 1.1175826e-16 1.6106435
0.045445411 -0.05 -0.033398125 -4.9173356 -9.0076972e-16 1.6642801
0.043562078 -0.05 -0.032772217 -4.9313819 -2.2850807e-16 1.7203722
0.041711407 -0.05 -0.032138858 -4.9454106 8.0696724e-16 1.7789153
0.0398932 -0.05 -0.031497852 -4.9605688 4.9046592e-16 1.8412765
0.038107263 -0.05 -0.030849046 -4.9785868 -3.1621251e-16 1.9085364
0.036353464 -0.05 -0.030192154 -4.9966776 -3.6766956e-16 1.9793248
0.034631705 -0.05 -0.029526867 -5.0119843 2.5955778e-16 2.0525702
0.032941915 -0.05 -0.02885287 -5.0242353 3.0936665e-16 2.1276269
0.031284043 -0.05 -0.028169847 -5.030938 5.2961283e-16 2.2047646
0.029658087 -0.05 -0.027477444 -5.0323651 2.5417847e-16 2.2869598
0.028064108 -0.05 -0.026775231 -5.0295019 -2.5686191e-16 2.3733076
0.026502178 -0.05 -0.026062827 -5.0136867 -6.6176528e-16 2.4579498
0.024972451 -0.05 -0.025339747 -4.9808193 -2.8575921e-16 2.5389161
0.023475143 -0.05 -0.024605477 -4.940558 8.380444e-17 2.6202497
0.022010519 -0.05 -0.023859511 -4.902337 -4.7771035e-16 2.7090787
0.020578966 -0.05 -0.023101222 -4.8569496 -7.362948e-16 2.7976178
0.0191809 -0.05 -0.022330044 -4.7768979 -7.8856298e-16 2.8686248
0.0178169 -0.05 -0.021545258 -4.637556 -3.5816344e-16 2.9150089
0.016487634 -0.05 -0.020746111 -4.4429219 1.0551389e-15 2.9420006
0.015193861 -0.05 -0.019931865 -4.2168994 -1.4192456e-16 2.9745642
0.013936534 -0.05 -0.019101682 -3.997348 -2.9143903e-17 3.0507997
0.012716784 -0.05 -0.018254711 -3.8384197 6.9976104e-16 3.2090717
0.011535938 -0.05 -0.017390071 -3.7181048 3.4575097e-16 3.454774
0.010395555 -0.05 -0.016506774 -3.6308801 1.7910638e-16 3.7928628
0.0092973902 -0.05 -0.015603781 -3.5803704 -2.5169948e-16 4.2091935
0.008243513 -0.05 -0.014680247 -3.6252969 9.6630444e-16 4.6969487
0.0072364176 -0.05 -0.013735349 -3.731984 2.4868215e-16 5.203687
0.006278842 -0.05 -0.012768014 -3.7632893 2.4891306e-16 5.6185509
0.0053738477 -0.05 -0.011777531 -3.678372 -5.6592042e-16 5.903685
0.0045251681 -0.05 -0.010763753 -3.4601419 4.409078e-16 6.0617422
0.0037366753 -0.05 -0.0097263213 -3.1365481 -5.4702697e-17 6.040562
0.0030124558 -0.05 -0.0086654318 -2.7140934 4.9524432e-16 5.8215004
0.0023572427 -0.05 -0.0075824248 -2.2339521 -7.6797407e-17 5.4352407
0.0017756037 -0.05 -0.0064787933 -1.7408579 2.2391487e-16 4.8826617
0.0012718689 -0.05 -0.005357054 -1.2646556 -1.1771888e-16 4.1636261
0.00084994745 -0.05 -0.0042212604 -0.84082258 -7.2350695e-17 3.3323337
0.00051290116 -0.05 -0.0030758254 -0.52402751 2.0160279e-17 2.4168928
0.00026246053 -0.05 -0.0019260616 -0.31821725 1.6781239e-17 1.451494
9.8683853e-05 -0.05 -0.000778027 -0.19440813 -1.3088104e-17 0.73635313
2.0049394e-05 -0.05 0.00036221923 -0.15888816 2.392498e-17 0.12913757
0.99688684 -0.05 -0.0032270046 -76.425937 7.9258554e-16 -10.753669
0.9906704 -0.05 -0.0040997538 -66.957409 7.3832521e-17 -9.4619441
0.98445297 -0.05 -0.004965512 -69.672478 8.3869161e-16 -9.5590038
0.97823458 -0.05 -0.0058243061 -69.107738 7.8640217e-16 -9.4260492
0.97201525 -0.05 -0.0066762422 -69.091089 -2.2716886e-15 -9.3417796
0.965795 -0.05 -0.0075214789 -68.884216 1.0279327e-15 -9.2386032
0.95957384 -0.05 -0.0083599993 -68.655308 1.89376e-15 -9.133082
0.95335179 -0.05 -0.0091918667 -68.385623 2.0704392e-15 -9.0248201
0.94712889 -0.05 -0.010017236 -68.081607 -6.4260191e-16 -8.9136687
0.94090512 -0.05 -0.010836193 -67.754193 7.5839846e-16 -8.8006996
0.93468052 -0.05 -0.01164874 -67.403622 -3.9093671e-16 -8.6859095
0.92845509 -0.05 -0.01245494 -67.039132 3.8876797e-17 -8.5711957
0.92222886 -0.05 -0.013254867 -66.654482 8.1392791e-16 -8.4553041
0.91600183 -0.05 -0.014048558 -66.259079 5.3912873e-16 -8.3398392
0.90977402 -0.05 -0.014836165 -65.850939 -1.1377892e-16 -8.2239951
0.90354545 -0.05 -0.015617683 -65.431447 -1.293336e-15 -8.1078966
0.89731612 -0.05 -0.016393144 -64.998121 6.4092066e-16 -7.9917994
0.89108606 -0.05 -0.017162685 -64.557582 -2.5743457e-15 -7.8758288
0.88485527 -0.05 -0.01792632 -64.106464 -7.2687988e-16 -7.7594786
0.87862374 -0.05 -0.018683991 -63.646583 -3.4962505e-16 -7.6437071
0.87239152 -0.05 -0.019435837 -63.176631 -4.0669339e-16 -7.5285137
0.86615861 -0.05 -0.020181924 -62.700077 2.7580513e-15 -7.4132914
0.859925 -0.05 -0.020922227 -62.215852 2.2233117e-15 -7.2989096
0.85369071 -0.05 -0.021656828 -61.724787 -1.0425531e-15 -7.1850683
0.84745577 -0.05 -0.022385794 -61.225628 -4.4102198e-16 -7.0712304
0.84122018 -0.05 -0.023109109 -60.720208 9.7380541e-16 -6.9576926
0.83498392 -0.05 -0.023826737 -60.207961 2.1093676e-15 -6.8450389
0.82874702 -0.05 -0.024538853 -59.689913 9.4809645e-16 -6.7331851
0.8225095 -0.05 -0.025245418 -59.163772 -1.9506514e-15 -6.6205145
0.81627136 -0.05 -0.025946386 -58.631331 -8.9522705e-16 -6.5091128
0.81003258 -0.05 -0.026641834 -58.093785 1.1047233e-15 -6.3980761
0.8037932 -0.05 -0.027331775 -57.550757 4.8380689e-16 -6.2879067
0.79755322 -0.05 -0.028016238 -57.004349 1.1741264e-15 -6.1777876
0.79131263 -0.05 -0.028695179 -56.449493 8.2860234e-16 -6.0682111
0.78507146 -0.05 -0.029368684 -55.892285 -1.3611035e-15 -5.9594401
0.7788297 -0.05 -0.030036719 -55.325478 1.9229008e-15 -5.850497
0.77258735 -0.05 -0.030699252 -54.757427 1.1927041e-15 -5.742483
0.76634442 -0.05 -0.031356344 -54.178738 7.74301e-16 -5.6344872
0.76010092 -0.05 -0.03200798 -53.596744 -1.1798172e-15 -5.527121
0.75385685 -0.05 -0.032654151 -53.008426 2.1278e-15 -5.4201632
0.74761222 -0.05 -0.033294829 -52.421208 1.9862379e-15 -5.3137139
0.74136703 -0.05 -0.033929998 -51.823663 -7.4118397e-16 -5.2074949
0.73512128 -0.05 -0.034559643 -51.223885 6.0419258e-16 -5.10191
0.72887496 -0.05 -0.035183729 -50.615236 4.9036423e-16 -4.9967306
0.7226281 -0.05 -0.035802291 -50.007672 -2.0984235e-16 -4.8923239
0.71638071 -0.05 -0.036415355 -49.390548 -8.9662288e-16 -4.7877509
0.71013275 -0.05 -0.03702275 -48.76953 -3.3364178e-16 -4.6835984
0.70388425 -0.05 -0.037624525 -48.144981 -4.5483984e-18 -4.5807437
0.6976352 -0.05 -0.038220646 -47.52128 -2.0861231e-16 -4.4776726
0.69138561 -0.05 -0.038811021 -46.890345 -6.2557317e-16 -4.3757185
0.68513549 -0.05 -0.039395705 -46.258091 3.2725475e-16 -4.2741338
0.67888483 -0.05 -0.039974599 -45.619277 -5.9584888e-17 -4.1730784
0.67263363 -0.05 -0.040547716 -44.982259 -1.1344263e-15 -4.0726659
0.6663819 -0.05 -0.041114937 -44.33772 1.0396254e-15 -3.972254
0.66012963 -0.05 -0.041676163 -43.691058 -2.8110478e-16 -3.873055
0.65387683 -0.05 -0.04223148 -43.041791 -1.0918079e-15 -3.7745122
0.6476235 -0.05 -0.042780799 -42.392368 -1.0674014e-15 -3.6761889
0.64136963 -0.05 -0.043323955 -41.738932 -1.9316222e-16 -3.5784892
0.63511522 -0.05 -0.043860916 -41.084163 -4.4943682e-16 -3.4817913
0.6288603 -0.05 -0.044391683 -40.426978 -4.4359283e-17 -3.3856546
0.62260483 -0.05 -0.04491612 -39.768923 1.1385481e-15 -3.2900873
0.61634883 -0.05 -0.04543414 -39.109485 -1.1171999e-15 -3.1954956
0.6100923 -0.05 -0.045945742 -38.450063 -1.3605211e-15 -3.1017403
0.60383524 -0.05 -0.046450781 -37.790441 -5.537323e-16 -3.0086257
0.59757764 -0.05 -0.046949184 -37.131034 2.0868462e-16 -2.9167466
0.59131952 -0.05 -0.047440867 -36.470584 8.9533799e-16 -2.8252778
0.58506086 -0.05 -0.047925742 -35.811847 4.8462984e-16 -2.7350017
0.57880167 -0.05 -0.048403689 -35.151473 2.682332e-17 -2.6451345
0.57254194 -0.05 -0.048874567 -34.493312 2.1524564e-16 -2.5567
0.56628169 -0.05 -0.04933834 -33.834259 2.0502472e-16 -2.4689805
0.5600209 -0.05 -0.049794888 -33.177277 -2.9659141e-16 -2.3821883
0.55375958 -0.05 -0.05024405 -32.52018 -2.3856624e-16 -2.2963025
0.54749773 -0.05 -0.050685752 -31.865714 -5.2048185e-16 -2.2117458
0.54123535 -0.05 -0.051119834 -31.209866 -4.6696601e-16 -2.1277254
0.53497243 -0.05 -0.051546156 -30.555369 5.1636035e-17 -2.0450645
0.52870898 -0.05 -0.051964645 -29.900081 3.7540205e-16 -1.9631741
0.52244501 -0.05 -0.052375131 -29.246501 -3.8422626e-16 -1.8823646
0.51618051 -0.05 -0.052777472 -28.592134 9.2831582e-16 -1.8025039
0.50991547 -0.05 -0.0531715 -27.938581 3.4217336e-17 -1.723661
0.50364991 -0.05 -0.053557077 -27.28592 -7.159135e-17 -1.6460656
0.49738384 -0.05 -0.053934079 -26.634763 -1.0296268e-15 -1.5694115
0.49111724 -0.05 -0.05430231 -25.983699 -4.0933607e-16 -1.4937386
0.48485011 -0.05 -0.054661564 -25.333886 2.2913982e-16 -1.4191859
0.47858247 -0.05 -0.055011719 -24.685815 7.1170538e-17 -1.345772
0.47231433 -0.05 -0.055352635 -24.041083 -1.6798813e-16 -1.2725177
0.46604568 -0.05 -0.055684063 -23.398619 1.4896908e-16 -1.200995
0.45977652 -0.05 -0.056005788 -22.759956 -3.599777e-16 -1.1313462
0.45350686 -0.05 -0.056317647 -22.120951 -5.6518664e-16 -1.0637167
0.44723671 -0.05 -0.056619458 -21.47715 1.7014134e-16 -0.99775179
0.44096607 -0.05 -0.056910994 -20.824585 -6.0210566e-16 -0.93361053
0.43469495 -0.05 -0.057192014 -20.16564 2.6478294e-16 -0.87046897
0.42842337 -0.05 -0.057462309 -19.512217 -2.7950318e-16 -0.80909092
0.42215132 -0.05 -0.057721681 -18.859718 1.6529573e-16 -0.74920099
0.41587881 -0.05 -0.057969877 -18.213983 -3.3378171e-16 -0.69123431
0.40960587 -0.05 -0.058206624 -17.583831 -1.6304819e-16 -0.63544073
0.4033325 -0.05 -0.058431693 -16.983749 2.126469e-17 -0.58226627
0.39705871 -0.05 -0.058644801 -16.426299 -1.1143099e-16 -0.53173743
0.39078451 -0.05 -0.058845638 -15.918541 -2.0351106e-16 -0.48438737
0.38450993 -0.05 -0.059033991 -15.459195 -9.4073904e-17 -0.44003569
0.37823498 -0.05 -0.059209617 -15.035093 -1.4384589e-16 -0.39798586
0.37195968 -0.05 -0.059372119 -14.632827 -1.9708266e-16 -0.35733073
0.36568404 -0.05 -0.059521176 -14.247333 -1.1938105e-16 -0.31827411
0.35940809 -0.05 -0.059656545 -13.874949 1.9347707e-16 -0.28029373
0.35313185 -0.05 -0.059777892 -13.513964 -1.3629328e-16 -0.24323297
0.34685536 -0.05 -0.059884859 -13.161983 -1.7539098e-17 -0.20698043
0.34057863 -0.05 -0.05997706 -12.819658 7.0046883e-17 -0.17171279
0.3343017 -0.05 -0.060054164 -12.488545 -5.1900265e-17 -0.137801
0.3280246 -0.05 -0.060115782 -12.169845 -3.4071684e-17 -0.10525431
0.32174736 -0.05 -0.060161487 -11.864108 1.9618619e-17 -0.071228639
0.31547002 -0.05 -0.060190893 -11.571663 -3.5782114e-17 -0.036425767
0.30919262 -0.05 -0.060203583 -11.291552 6.7208565e-19 -0.0045330344
0.30291522 -0.05 -0.060199123 -11.029337 -7.1622935e-18 0.02721091
0.29738375 -0.05 0.059828169 -8.0991982 4.070272e-18 0.002682354
0.29174651 -0.05 0.0598357 -8.3360751 3.1474783e-19 -0.01968018
0.28619043 -0.05 0.059828553 -8.5738269 6.5213012e-19 -0.044302786
0.28071436 -0.05 0.059806945 -8.8126959 -7.5707266e-18 -0.068614851
0.2753172 -0.05 0.059771146 -9.0535908 -4.2665504e-17 -0.094447487
0.26999784 -0.05 0.059721457 -9.2967954 -4.9627407e-17 -0.12203996
0.2647552 -0.05 0.059658157 -9.5419014 -5.6376102e-17 -0.15166352
0.25958823 -0.05 0.059581496 -9.7888305 1.6734791e-17 -0.183233
0.25449587 -0.05 0.059491767 -10.037259 1.9419816e-16 -0.21635774
0.24947707 -0.05 0.059389218 -10.287192 6.9336254e-17 -0.25141845
0.24453083 -0.05 0.059274041 -10.536431 -5.5733599e-17 -0.28803682
0.23965613 -0.05 0.059146516 -10.78397 -8.2834009e-17 -0.32627354
0.234852 -0.05 0.05900689 -11.027965 1.6076984e-16 -0.36621123
0.23011744 -0.05 0.058855432 -11.268595 2.1609189e-16 -0.40795335
0.22545149 -0.05 0.058692388 -11.509278 -1.5763452e-16 -0.45168317
0.22085321 -0.05 0.058517935 -11.750399 2.2401466e-16 -0.4971881
0.21632166 -0.05 0.058332339 -11.994272 -5.7392919e-17 -0.54426211
0.21185592 -0.05 0.05813583 -12.240099 -6.6806043e-17 -0.59326319
0.20745507 -0.05 0.057928542 -12.484851 5.9608694e-17 -0.64373406
0.20311823 -0.05 0.057710746 -12.724802 -4.3516477e-16 -0.6956139
0.19884453 -0.05 0.057482658 -12.954532 7.0817657e-16 -0.74920198
0.19463308 -0.05 0.057244513 -13.167805 -4.1759574e-16 -0.80436099
0.19048302 -0.05 0.056996521 -13.361974 2.3216227e-16 -0.86190981
0.18639351 -0.05 0.056738768 -13.539744 1.1152766e-16 -0.92233667
0.18236373 -0.05 0.05647151 -13.715196 3.7974754e-16 -0.98636794
0.17839285 -0.05 0.056194942 -13.905792 -1.9786062e-16 -1.0550381
0.17448007 -0.05 0.055909229 -14.116497 -4.636389e-16 -1.1277385
0.17062459 -0.05 0.055614583 -14.343324 2.6236147e-16 -1.2046243
0.16682562 -0.05 0.055311168 -14.583701 -3.7023796e-16 -1.2855209
0.1630824 -0.05 0.054999125 -14.838927 -1.1770851e-17 -1.3706148
0.15939417 -0.05 0.054678588 -15.1159 4.2155226e-16 -1.4594682
0.15576017 -0.05 0.054349785 -15.425499 8.0658075e-16 -1.553017
0.15217967 -0.05 0.054012834 -15.769367 -1.7446248e-16 -1.6522785
0.14865194 -0.05 0.05366788 -16.138083 3.277037e-16 -1.7570909
0.14517627 -0.05 0.053315074 -16.52053 -2.1209099e-17 -1.8674088
0.14175197 -0.05 0.052954513 -16.906841 4.6380763e-16 -1.9821703
0.13837832 -0.05 0.05258636 -17.291505 -3.062163e-16 -2.1009484
0.13505466 -0.05 0.052210732 -17.670823 9.763257e-17 -2.2233937
0.1317803 -0.05 0.051827803 -18.04301 -1.0496688e-15 -2.3492274
0.12855459 -0.05 0.051437683 -18.406473 6.2187978e-16 -2.4791816
0.12537689 -0.05 0.051040402 -18.758444 6.2891091e-16 -2.6129534
0.12224654 -0.05 0.050636146 -19.098979 2.3493919e-17 -2.7496845
0.11916291 -0.05 0.050225037 -19.428 -3.9799505e-16 -2.8899398
0.1161254 -0.05 0.049807093 -19.743797 4.4310694e-17 -3.0331334
0.1131334 -0.05 0.049382392 -20.045818 4.0504579e-16 -3.1789558
0.1101863 -0.05 0.048951066 -20.334233 -2.4801798e-16 -3.3276073
0.10728353 -0.05 0.048513148 -20.608432 1.1303277e-15 -3.4789959
0.10442451 -0.05 0.048068735 -20.869775 8.5755508e-16 -3.6327127
0.10160865 -0.05 0.047617982 -21.119324 -1.5960853e-16 -3.7898509
0.098835413 -0.05 0.047160834 -21.354924 4.1242518e-16 -3.9496941
0.096104261 -0.05 0.046697346 -21.577297 -1.2277178e-16 -4.1117483
0.09341464 -0.05 0.046227661 -21.787704 2.9766983e-16 -4.2771567
0.090766046 -0.05 0.045751696 -21.983878 -1.0922117e-15 -4.4450187
0.08815796 -0.05 0.045269517 -22.167011 -7.3225718e-16 -4.6149699
0.085589872 -0.05 0.04478119 -22.337206 -3.1677899e-16 -4.7875096
0.083061288 -0.05 0.044286743 -22.49577 3.2243028e-16 -4.9625766
0.080571719 -0.05 0.043786217 -22.642774 -3.831841e-16 -5.1408861
0.078120718 -0.05 0.043279507 -22.775841 -3.9914349e-16 -5.3218641
0.075707826 -0.05 0.042766605 -22.892262 5.3083779e-16 -5.5042867
0.073332578 -0.05 0.042247583 -22.99405 8.3687066e-17 -5.689084
0.070994529 -0.05 0.041722461 -23.081364 -7.0887695e-16 -5.8768541
0.068693273 -0.05 0.041191125 -23.151757 1.1860664e-15 -6.0669528
0.066428398 -0.05 0.040653533 -23.20566 3.4423091e-16 -6.2590084
0.064199496 -0.05 0.040109682 -23.243348 -7.3417513e-17 -6.4536151
0.062006188 -0.05 0.039559479 -23.263786 2.1127711e-16 -6.6504425
0.059848106 -0.05 0.039002838 -23.266309 -1.0651733e-15 -6.8491206
0.057724885 -0.05 0.038439698 -23.250949 -1.2511397e-15 -7.0500142
0.055636186 -0.05 0.037869954 -23.21696 -4.3283114e-16 -7.2529989
0.053581658 -0.05 0.037293571 -23.165588 -6.0656959e-16 -7.4588039
0.051561011 -0.05 0.036710362 -23.093688 1.0196386e-15 -7.6661315
0.049573954 -0.05 0.036120171 -23.001926 -1.1500738e-16 -7.8751089
0.047620184 -0.05 0.035522934 -22.890446 -2.3562643e-16 -8.0856545
0.045699449 -0.05 0.034918468 -22.758888 4.0799196e-16 -8.2986059
0.043811512 -0.05 0.034306583 -22.606463 1.9951487e-16 -8.5134383
0.041956183 -0.05 0.033687005 -22.430781 8.2606009e-17 -8.7289095
0.040133259 -0.05 0.033059538 -22.229974 -5.0923008e-16 -8.9445144
0.038342545 -0.05 0.032424032 -22.004672 -7.3497046e-16 -9.1618195
0.03658391 -0.05 0.031780202 -21.761987 1.9586792e-16 -9.3783196
0.034857252 -0.05 0.031127737 -21.497107 3.7974092e-17 -9.5940558
0.033162495 -0.05 0.030466326 -21.201319 1.4182083e-15 -9.8083579
0.03149959 -0.05 0.029795652 -20.879543 -6.0908941e-16 -10.020558
0.02986853 -0.05 0.029115361 -20.529809 -3.5325706e-16 -10.231383
0.028269372 -0.05 0.028425021 -20.148478 -1.927837e-16 -10.436912
0.026702187 -0.05 0.027724252 -19.737199 1.2547089e-15 -10.638635
0.025167125 -0.05 0.027012569 -19.294754 -3.1558647e-16 -10.834043
0.023664397 -0.05 0.026289455 -18.819842 -8.2288332e-17 -11.021573
0.022194266 -0.05 0.025554401 -18.311631 -8.1808846e-16 -11.199934
0.020757114 -0.05 0.02480678 -17.76828 -3.0312211e-16 -11.365928
0.019353351 -0.05 0.024046021 -17.190058 4.814238e-16 -11.519197
0.017983552 -0.05 0.023271401 -16.574027 6.2247559e-16 -11.654417
0.01664838 -0.05 0.022482161 -15.919782 2.5109302e-16 -11.769526
0.015348588 -0.05 0.021677559 -15.226536 9.6921839e-16 -11.859705
0.01408512 -0.05 0.02085675 -14.493389 -4.0546077e-17 -11.921199
0.012859105 -0.05 0.020018874 -13.720397 -5.2365126e-16 -11.947898
0.011671862 -0.05 0.01916304 -12.908235 -2.3059461e-16 -11.936425
0.010524941 -0.05 0.018288248 -12.056549 3.3923693e-17 -11.877189
0.0094200915 -0.05 0.017393446 -11.164851 -9.3937996e-16 -11.758718
0.0083593752 -0.05 0.016477776 -10.235793 -9.6758089e-17 -11.573317
0.0073452804 -0.05 0.015540394 -9.2762349 -1.2119735e-16 -11.317866
0.0063805373 -0.05 0.014580208 -8.2940544 -7.1111239e-17 -10.976722
0.0054682018 -0.05 0.013596482 -7.2919096 2.8061035e-16 -10.54522
0.0046120063 -0.05 0.012589044 -6.2828874 -3.7256014e-16 -10.002477
0.0038158199 -0.05 0.011557505 -5.2848092 -9.4064329e-17 -9.3341852
0.0030837307 -0.05 0.010502031 -4.3170469 -3.156849e-16 -8.5419395
0.0024204815 -0.05 0.0094239264 -3.402256 8.9927357e-17 -7.632982
0.0018306509 -0.05 0.0083246511 -2.5637797 3.8658457e-16 -6.6163229
0.0013185876 -0.05 0.0072066891 -1.8217016 -3.0872011e-16 -5.5129592
0.00088823098 -0.05 0.0060740647 -1.1982921 -1.4612378e-16 -4.3581591
0.00054267545 -0.05 0.0049311681 -0.72441503 -3.0790719e-17 -3.1983028
0.00028369099 -0.05 0.0037832986 -0.42169483 2.442637e-16 -2.072093
0.00011138095 -0.05 0.0026365137 -0.25033262 -2.3632592e-17 -1.1340219
2.4268685e-05 -0.05 0.0014968838 -0.17083036 7.8008012e-17 -0.45040689
0.99689018 -0.05 -0.0023276585 0.61024771 4.9805216e-16 0.079479343
0.9906804 -0.05 -0.0014087019 0.053368717 1.0579822e-16 -0.0038765959
0.98446959 -0.05 -0.00049672884 -0.024865264 9.1363436e-16 0.0023672324
0.97825776 -0.05 0.00040828738 0.00081413888 -7.7476686e-16 0.00039411862
0.97204493 -0.05 0.0013064529 0.0050500955 1.2883123e-16 -0.00024459072
0.96583114 -0.05 0.0021979261 0.0038172615 -3.2610839e-16 -0.0001246607
0.95961639 -0.05 0.0030826898 0.0021709296 5.8839458e-16 -7.8184538e-06
0.95340071 -0.05 0.0039608074 -0.0011927026 -2.9299401e-16 0.00027114666
0.94718411 -0.05 0.0048324338 -0.0053767594 -4.6422259e-16 0.00072227741
0.94096661 -0.05 0.0056976531 -0.010112723 -6.2687506e-17 0.0012563791
0.93474822 -0.05 0.0065564705 -0.016063536 4.4577065e-16 0.0019190365
0.92852896 -0.05 0.0074089459 -0.023034963 1.2001725e-16 0.0027637169
0.92230885 -0.05 0.008255156 -0.03007898 -6.6151769e-16 0.003639746
0.91608789 -0.05 0.0090951355 -0.037151616 1.2541884e-16 0.0045097283
0.90986611 -0.05 0.0099290352 -0.044808351 2.4535979e-16 0.005429446
0.90364352 -0.05 0.010756853 -0.052754964 -4.2099739e-16 0.0063668226
0.89742013 -0.05 0.01157862 -0.060970445 -1.3424958e-16 0.0073464216
0.89119596 -0.05 0.012394474 -0.06945979 4.644591e-17 0.0083482628
0.88497103 -0.05 0.013204425 -0.078409265 -4.2190223e-16 0.00941416
0.87874531 -0.05 0.014008419 -0.08753576 8.5124012e-17 0.010475483
0.87251886 -0.05 0.014806593 -0.097091758 1.1090573e-16 0.011579423
0.86629165 -0.05 0.015599014 -0.10702711 4.404653e-16 0.012702914
0.86006373 -0.05 0.016385655 -0.11749208 -1.608257e-16 0.013905443
0.85383508 -0.05 0.017166601 -0.1282739 -3.5515848e-16 0.015131254
0.84760573 -0.05 0.017941915 -0.13951401 -5.2823183e-16 0.016387364
0.84137569 -0.05 0.018711584 -0.15101293 -9.2246784e-16 0.017630544
0.83514494 -0.05 0.019475571 -0.16294357 -6.726443e-16 0.01897609
0.82891352 -0.05 0.020234051 -0.1753292 2.3690054e-16 0.02027115
0.82268143 -0.05 0.020986985 -0.18805281 2.2988443e-16 0.021644935
0.81644866 -0.05 0.021734326 -0.20099365 -1.173573e-16 0.02297756
0.81021524 -0.05 0.022476153 -0.21481819 1.0529078e-15 0.024479307
0.80398115 -0.05 0.023212476 -0.22908804 -9.6666551e-16 0.025953419
0.79774643 -0.05 0.023943327 -0.24384657 -2.9093519e-16 0.027471158
0.79151107 -0.05 0.02466866 -0.25891845 5.922407e-16 0.028937235
0.78527508 -0.05 0.025388562 -0.2746002 -6.9474623e-16 0.030534812
0.77903845 -0.05 0.026102999 -0.29086104 -4.9101307e-16 0.032123322
0.77280121 -0.05 0.026811938 -0.30718372 5.7526771e-17 0.033717473
0.76656334 -0.05 0.02751544 -0.32430481 5.5509384e-16 0.035299926
0.76032486 -0.05 0.028213491 -0.34234143 -3.2097142e-16 0.037085269
0.75408576 -0.05 0.028906081 -0.36081363 -4.5006912e-16 0.038953177
0.74784607 -0.05 0.029593182 -0.38012782 -2.8956504e-16 0.040738866
0.74160578 -0.05 0.030274778 -0.40038124 -8.0700057e-16 0.042474357
0.73536488 -0.05 0.030950856 -0.4222941 7.5153271e-16 0.04451851
0.72912338 -0.05 0.031621379 -0.44484104 2.636477e-16 0.046478278
0.7228813 -0.05 0.03228638 -0.46785495 1.97778e-16 0.048528851
0.71663863 -0.05 0.03294589 -0.49169283 1.1406739e-16 0.050547766
0.71039536 -0.05 0.033599733 -0.516929 -3.6223302e-16 0.052855194
0.70415151 -0.05 0.034247962 -0.54285659 -3.3111713e-16 0.055086621
0.69790707 -0.05 0.034890541 -0.56983811 -9.2830942e-16 0.05736837
0.69166204 -0.05 0.035527376 -0.59720341 4.7889529e-16 0.059566989
0.68541644 -0.05 0.036158527 -0.62644855 1.4515071e-16 0.062007809
0.67917026 -0.05 0.036783891 -0.65669778 -5.4857711e-16 0.064426841
0.6729235 -0.05 0.037403481 -0.6878368 9.1316622e-17 0.066876141
0.66667615 -0.05 0.038017181 -0.72067028 4.8466431e-16 0.069349178
0.66042823 -0.05 0.03862489 -0.75454638 -1.0232992e-17 0.072014511
0.65417973 -0.05 0.039226693 -0.78969933 -2.6707557e-16 0.074842417
0.64793066 -0.05 0.039822502 -0.82626644 -1.298353e-16 0.077576941
0.64168101 -0.05 0.040412153 -0.86342902 2.7154907e-16 0.080275684
0.63543077 -0.05 0.040995613 -0.90234627 -5.6713206e-16 0.08306846
0.62917995 -0.05 0.041572883 -0.94370314 1.2183616e-16 0.085967076
0.62292857 -0.05 0.042143827 -0.99015644 1.2133369e-16 0.089214442
0.61667659 -0.05 0.042708359 -1.0430029 1.1758721e-16 0.092953436
0.61042404 -0.05 0.043266476 -1.1009484 1.8656575e-16 0.097041842
0.6041709 -0.05 0.043818034 -1.1612243 -7.0773653e-17 0.10124679
0.59791719 -0.05 0.044362961 -1.2231875 -4.4654265e-16 0.10532408
0.5916629 -0.05 0.044901173 -1.2869323 3.2550355e-16 0.10938481
0.58540802 -0.05 0.045432579 -1.3525934 -2.2788423e-16 0.1134227
0.57915255 -0.05 0.045957063 -1.4201071 -1.1175581e-16 0.11750909
0.5728965 -0.05 0.046474481 -1.4894636 4.8121054e-17 0.12146671
0.56663987 -0.05 0.046984799 -1.5620697 -1.0992414e-17 0.12546023
0.56038266 -0.05 0.047487895 -1.6365428 2.0371906e-16 0.12945806
0.55412484 -0.05 0.04798361 -1.7132121 2.3362061e-17 0.133632
0.54786645 -0.05 0.04847187 -1.792653 -1.3018592e-16 0.13759967
0.54160747 -0.05 0.048952512 -1.8747094 -1.2536445e-16 0.14151676
0.5353479 -0.05 0.049425398 -1.9600671 1.868038e-16 0.1454265
0.52908774 -0.05 0.049890458 -2.0476459 -2.0542126e-16 0.14924987
0.52282699 -0.05 0.050347518 -2.138777 -6.4047007e-16 0.15297248
0.51656565 -0.05 0.050796437 -2.2331351 -5.3932243e-16 0.15662213
0.51030372 -0.05 0.051237046 -2.3311959 -2.2431401e-16 0.16028193
0.5040412 -0.05 0.051669209 -2.4318889 2.9738385e-17 0.16381191
0.4977781 -0.05 0.052092802 -2.536585 -3.1857993e-16 0.16717922
0.49151442 -0.05 0.052507627 -2.6447467 -8.6831377e-17 0.17034257
0.48525013 -0.05 0.052913479 -2.7570674 -4.2776313e-16 0.17329078
0.47898528 -0.05 0.053310236 -2.8729335 -6.2333947e-16 0.17540029
0.47271984 -0.05 0.053697759 -2.9939892 -4.0591748e-16 0.17745643
0.46645383 -0.05 0.054075798 -3.1194372 2.6069405e-16 0.17995871
0.46018723 -0.05 0.054444137 -3.2487007 -3.3156501e-16 0.18233994
0.45392007 -0.05 0.054802615 -3.3815182 2.0185193e-16 0.18440471
0.44765233 -0.05 0.055151049 -3.5181561 -5.1625152e-17 0.18606153
0.44138404 -0.05 0.055489211 -3.658291 -5.1425842e-17 0.18724197
0.43511519 -0.05 0.055816862 -3.8027222 1.2802682e-16 0.18817594
0.42884578 -0.05 0.056133791 -3.9506499 -2.1816828e-16 0.1885141
0.42257583 -0.05 0.0564398 -4.102322 -4.2679719e-18 0.18843816
0.41630534 -0.05 0.056734639 -4.2579953 -5.4538132e-17 0.18778759
0.41003434 -0.05 0.05701803 -4.4181177 4.3856654e-17 0.18670803
0.40376281 -0.05 0.057289748 -4.5824771 -1.3219521e-16 0.1849162
0.39749078 -0.05 0.057549508 -4.7511383 -4.9770767e-17 0.18243907
0.39121825 -0.05 0.057797002 -4.9236759 2.1846057e-17 0.1792275
0.38494525 -0.05 0.058032013 -5.1007183 -3.0919254e-16 0.17538403
0.37867178 -0.05 0.0582543 -5.2828563 -2.838133e-17 0.17067875
0.37239786 -0.05 0.058463467 -5.4689366 3.846058e-17 0.16502114
0.3661235 -0.05 0.058659191 -5.6588806 -7.4580804e-17 0.15853614
0.35984874 -0.05 0.058841232 -5.8523243 -1.6870838e-16 0.15098331
0.35357357 -0.05 0.059009251 -6.049086 -1.2595835e-16 0.14242175
0.34729804 -0.05 0.059162894 -6.2492898 1.0677164e-18 0.13259374
0.34102217 -0.05 0.059301771 -6.4529602 -1.1076664e-17 0.12147794
0.33474599 -0.05 0.059425554 -6.6620049 6.7631308e-17 0.10909137
0.32846951 -0.05 0.059533853 -6.8786775 1.78172e-16 0.095153298
0.32219279 -0.05 0.059626241 -7.1048442 9.7690351e-17 0.079793834
0.31591584 -0.05 0.05970233 -7.3427115 -2.1189644e-17 0.063020461
0.30963872 -0.05 0.059761704 -7.5926199 -1.0172711e-16 0.045151299
0.30336145 -0.05 0.05980393 -7.8453894 -4.5423159e-18 0.023534075
