# yPlus  FACE_DATA 448
# x y z  yPlus
0.29693749 -0.05 -0.060178906 28.204748
0.29130037 -0.05 -0.060144513 27.731825
0.28574448 -0.05 -0.060096046 27.302066
0.28026873 -0.05 -0.060033714 26.883484
0.27487198 -0.05 -0.059957777 26.478533
0.26955314 -0.05 -0.059868529 26.0865
0.26431112 -0.05 -0.059766242 25.707229
0.25914486 -0.05 -0.059651156 25.339428
0.25405331 -0.05 -0.059523557 24.98393
0.24903541 -0.05 -0.059383688 24.639852
0.24409016 -0.05 -0.059231728 24.305977
0.23921655 -0.05 -0.059067953 23.981442
0.23441359 -0.05 -0.058892604 23.665889
0.22968028 -0.05 -0.058705939 23.357009
0.22501567 -0.05 -0.058508199 23.05481
0.22041882 -0.05 -0.058299553 22.761016
0.21588877 -0.05 -0.058080262 22.475783
0.21142461 -0.05 -0.057850546 22.199777
0.20702544 -0.05 -0.057610535 21.931129
0.20269034 -0.05 -0.057360491 21.670311
0.19841845 -0.05 -0.057100627 21.417525
0.19420888 -0.05 -0.056831169 21.172614
0.19006078 -0.05 -0.056552319 20.936099
0.18597331 -0.05 -0.056264159 20.706006
0.18194562 -0.05 -0.055966939 20.482367
0.17797691 -0.05 -0.055660848 20.266414
0.17406636 -0.05 -0.055346045 20.056259
0.17021318 -0.05 -0.055022733 19.853522
0.16641657 -0.05 -0.054691073 19.656953
0.16267578 -0.05 -0.054351201 19.467027
0.15899003 -0.05 -0.054003243 19.28231
0.15535857 -0.05 -0.053647424 19.10398
0.15178068 -0.05 -0.053283854 18.932289
0.14825563 -0.05 -0.052912673 18.766045
0.14478268 -0.05 -0.052534029 18.606041
0.14136114 -0.05 -0.052148012 18.450934
0.13799032 -0.05 -0.051754779 18.301162
0.13466955 -0.05 -0.051354444 18.157028
0.13139813 -0.05 -0.050947174 18.018253
0.12817541 -0.05 -0.050533075 17.885917
0.12500075 -0.05 -0.050112173 17.757728
0.12187349 -0.05 -0.049684647 17.634703
0.11879301 -0.05 -0.049250617 17.518358
0.11575869 -0.05 -0.048810095 17.406671
0.11276992 -0.05 -0.048363154 17.299747
0.10982612 -0.05 -0.047909921 17.198135
0.10692669 -0.05 -0.047450429 17.101885
0.10407105 -0.05 -0.046984764 17.009045
0.10125862 -0.05 -0.046513083 16.922929
0.09848886 -0.05 -0.046035324 16.841771
0.09576123 -0.05 -0.045551537 16.763812
0.093075176 -0.05 -0.045061862 16.692432
0.090430196 -0.05 -0.044566213 16.626188
0.087825768 -0.05 -0.044064651 16.562761
0.085261383 -0.05 -0.043557239 16.506593
0.082736546 -0.05 -0.043044 16.45493
0.080250768 -0.05 -0.042524973 16.411668
0.077803603 -0.05 -0.042000048 16.373236
0.075394593 -0.05 -0.041469217 16.339549
0.073023269 -0.05 -0.040932545 16.311779
0.07068919 -0.05 -0.040390049 16.291906
0.06839195 -0.05 -0.039841613 16.278203
0.066131136 -0.05 -0.039287193 16.269217
0.06390634 -0.05 -0.038726781 16.266631
0.061717184 -0.05 -0.038160282 16.269243
0.059563301 -0.05 -0.037587607 16.276133
0.057444328 -0.05 -0.037008691 16.287355
0.055359923 -0.05 -0.036423429 16.303297
0.053309738 -0.05 -0.035831783 16.324078
0.051293485 -0.05 -0.035233561 16.352173
0.049310873 -0.05 -0.03462861 16.380117
0.047361598 -0.05 -0.03401686 16.412934
0.045445411 -0.05 -0.033398125 16.44623
0.043562078 -0.05 -0.032772217 16.482605
0.041711407 -0.05 -0.032138858 16.522337
0.0398932 -0.05 -0.031497852 16.566852
0.038107263 -0.05 -0.030849046 16.620605
0.036353464 -0.05 -0.030192154 16.680124
0.034631705 -0.05 -0.029526867 16.739499
0.032941915 -0.05 -0.02885287 16.799521
0.031284043 -0.05 -0.028169847 16.855675
0.029658087 -0.05 -0.027477444 16.912255
0.028064108 -0.05 -0.026775231 16.970614
0.026502178 -0.05 -0.026062827 17.015606
0.024972451 -0.05 -0.025339747 17.04235
0.023475143 -0.05 -0.024605477 17.066099
0.022010519 -0.05 -0.023859511 17.106205
0.020578966 -0.05 -0.023101222 17.146643
0.0191809 -0.05 -0.022330044 17.136758
0.0178169 -0.05 -0.021545258 17.042146
0.016487634 -0.05 -0.020746111 16.866364
0.015193861 -0.05 -0.019931865 16.666136
0.013936534 -0.05 -0.019101682 16.528187
0.012716784 -0.05 -0.018254711 16.574067
0.011535938 -0.05 -0.017390071 16.790249
0.010395555 -0.05 -0.016506774 17.186617
0.0092973902 -0.05 -0.015603781 17.751175
0.008243513 -0.05 -0.014680247 18.533651
0.0072364176 -0.05 -0.013735349 19.432441
0.006278842 -0.05 -0.012768014 20.186455
0.0053738477 -0.05 -0.011777531 20.715754
0.0045251681 -0.05 -0.010763753 21.015092
0.0037366753 -0.05 -0.0097263213 21.025759
0.0030124558 -0.05 -0.0086654318 20.700938
0.0023572427 -0.05 -0.0075824248 20.064682
0.0017756037 -0.05 -0.0064787933 19.086762
0.0012718689 -0.05 -0.005357054 17.690515
0.00084994745 -0.05 -0.0042212604 15.876806
0.00051290116 -0.05 -0.0030758254 13.561896
0.00026246053 -0.05 -0.0019260616 10.530121
9.8683853e-05 -0.05 -0.000778027 7.5050276
2.0049394e-05 -0.05 0.00036221923 3.401615
0.99688684 -0.05 -0.0032270046 74.526718
0.9906704 -0.05 -0.0040997538 70.546878
0.98445297 -0.05 -0.004965512 71.951314
0.97823458 -0.05 -0.0058243061 71.657404
0.97201525 -0.05 -0.0066762422 71.6489
0.965795 -0.05 -0.0075214789 71.541777
0.95957384 -0.05 -0.0083599993 71.424128
0.95335179 -0.05 -0.0091918667 71.285298
0.94712889 -0.05 -0.010017236 71.127739
0.94090512 -0.05 -0.010836193 70.957794
0.93468052 -0.05 -0.01164874 70.775162
0.92845509 -0.05 -0.01245494 70.585251
0.92222886 -0.05 -0.013254867 70.384198
0.91600183 -0.05 -0.014048558 70.177179
0.90977402 -0.05 -0.014836165 69.962811
0.90354545 -0.05 -0.015617683 69.742267
0.89731612 -0.05 -0.016393144 69.512703
0.89108606 -0.05 -0.017162685 69.278714
0.88485527 -0.05 -0.01792632 69.038525
0.87862374 -0.05 -0.018683991 68.79343
0.87239152 -0.05 -0.019435837 68.54068
0.86615861 -0.05 -0.020181924 68.283799
0.859925 -0.05 -0.020922227 68.021846
0.85369071 -0.05 -0.021656828 67.755298
0.84745577 -0.05 -0.022385794 67.48276
0.84122018 -0.05 -0.023109109 67.205653
0.83498392 -0.05 -0.023826737 66.92403
0.82874702 -0.05 -0.024538853 66.637274
0.8225095 -0.05 -0.025245418 66.345034
0.81627136 -0.05 -0.025946386 66.047116
0.81003258 -0.05 -0.026641834 65.745228
0.8037932 -0.05 -0.027331775 65.437913
0.79755322 -0.05 -0.028016238 65.128377
0.79131263 -0.05 -0.028695179 64.812106
0.78507146 -0.05 -0.029368684 64.493368
0.7788297 -0.05 -0.030036719 64.166215
0.77258735 -0.05 -0.030699252 63.837582
0.76634442 -0.05 -0.031356344 63.500347
0.76010092 -0.05 -0.03200798 63.159105
0.75385685 -0.05 -0.032654151 62.810531
0.74761222 -0.05 -0.033294829 62.462928
0.74136703 -0.05 -0.033929998 62.106192
0.73512128 -0.05 -0.034559643 61.746448
0.72887496 -0.05 -0.035183729 61.377236
0.7226281 -0.05 -0.035802291 61.007835
0.71638071 -0.05 -0.036415355 60.629628
0.71013275 -0.05 -0.03702275 60.24652
0.70388425 -0.05 -0.037624525 59.856976
0.6976352 -0.05 -0.038220646 59.467943
0.69138561 -0.05 -0.038811021 59.070748
0.68513549 -0.05 -0.039395705 58.670661
0.67888483 -0.05 -0.039974599 58.262105
0.67263363 -0.05 -0.040547716 57.853062
0.6663819 -0.05 -0.041114937 57.435998
0.66012963 -0.05 -0.041676163 57.013742
0.65387683 -0.05 -0.04223148 56.585996
0.6476235 -0.05 -0.042780799 56.155833
0.64136963 -0.05 -0.043323955 55.719359
0.63511522 -0.05 -0.043860916 55.278498
0.6288603 -0.05 -0.044391683 54.831726
0.62260483 -0.05 -0.04491612 54.380976
0.61634883 -0.05 -0.04543414 53.925206
0.6100923 -0.05 -0.045945742 53.465633
0.60383524 -0.05 -0.046450781 53.002394
0.59757764 -0.05 -0.046949184 52.535348
0.59131952 -0.05 -0.047440867 52.062885
0.58506086 -0.05 -0.047925742 51.588087
0.57880167 -0.05 -0.048403689 51.107003
0.57254194 -0.05 -0.048874567 50.624006
0.56628169 -0.05 -0.04933834 50.134821
0.5600209 -0.05 -0.049794888 49.642739
0.55375958 -0.05 -0.05024405 49.145653
0.54749773 -0.05 -0.050685752 48.646875
0.54123535 -0.05 -0.051119834 48.140906
0.53497243 -0.05 -0.051546156 47.631037
0.52870898 -0.05 -0.051964645 47.114243
0.52244501 -0.05 -0.052375131 46.594099
0.51618051 -0.05 -0.052777472 46.066746
0.50991547 -0.05 -0.0531715 45.53411
0.50364991 -0.05 -0.053557077 44.996042
0.49738384 -0.05 -0.053934079 44.453775
0.49111724 -0.05 -0.05430231 43.904578
0.48485011 -0.05 -0.054661564 43.349875
0.47858247 -0.05 -0.055011719 42.789092
0.47231433 -0.05 -0.055352635 42.224536
0.46604568 -0.05 -0.055684063 41.654262
0.45977652 -0.05 -0.056005788 41.079358
0.45350686 -0.05 -0.056317647 40.496417
0.44723671 -0.05 -0.056619458 39.900919
0.44096607 -0.05 -0.056910994 39.288462
0.43469495 -0.05 -0.057192014 38.660166
0.42842337 -0.05 -0.057462309 38.027552
0.42215132 -0.05 -0.057721681 37.385041
0.41587881 -0.05 -0.057969877 36.739112
0.40960587 -0.05 -0.058206624 36.097342
0.4033325 -0.05 -0.058431693 35.476635
0.39705871 -0.05 -0.058644801 34.889903
0.39078451 -0.05 -0.058845638 34.347982
0.38450993 -0.05 -0.059033991 33.850117
0.37823498 -0.05 -0.059209617 33.384397
0.37195968 -0.05 -0.059372119 32.935242
0.36568404 -0.05 -0.059521176 32.499339
0.35940809 -0.05 -0.059656545 32.071556
0.35313185 -0.05 -0.059777892 31.65112
0.34685536 -0.05 -0.059884859 31.234048
0.34057863 -0.05 -0.05997706 30.823717
0.3343017 -0.05 -0.060054164 30.421675
0.3280246 -0.05 -0.060115782 30.030601
0.32174736 -0.05 -0.060161487 29.650503
0.31547002 -0.05 -0.060190893 29.283452
0.30919262 -0.05 -0.060203583 28.92703
0.30291522 -0.05 -0.060199123 28.604319
0.29738375 -0.05 0.059828169 24.431031
0.29174651 -0.05 0.0598357 24.677747
0.28619043 -0.05 0.059828553 24.909383
0.28071436 -0.05 0.059806945 25.137556
0.2753172 -0.05 0.059771146 25.362947
0.26999784 -0.05 0.059721457 25.586718
0.2647552 -0.05 0.059658157 25.808275
0.25958823 -0.05 0.059581496 26.028349
0.25449587 -0.05 0.059491767 26.246146
0.24947707 -0.05 0.059389218 26.462432
0.24453083 -0.05 0.059274041 26.674088
0.23965613 -0.05 0.059146516 26.880316
0.234852 -0.05 0.05900689 27.079004
0.23011744 -0.05 0.058855432 27.27073
0.22545149 -0.05 0.058692388 27.459927
0.22085321 -0.05 0.058517935 27.647612
0.21632166 -0.05 0.058332339 27.836073
0.21185592 -0.05 0.05813583 28.024964
0.20745507 -0.05 0.057928542 28.21077
0.20311823 -0.05 0.057710746 28.389418
0.19884453 -0.05 0.057482658 28.555445
0.19463308 -0.05 0.057244513 28.702306
0.19048302 -0.05 0.056996521 28.827996
0.18639351 -0.05 0.056738768 28.936173
0.18236373 -0.05 0.05647151 29.042201
0.17839285 -0.05 0.056194942 29.165328
0.17448007 -0.05 0.055909229 29.30983
0.17062459 -0.05 0.055614583 29.47162
0.16682562 -0.05 0.055311168 29.64707
0.1630824 -0.05 0.054999125 29.838005
0.15939417 -0.05 0.054678588 30.050361
0.15576017 -0.05 0.054349785 30.294497
0.15217967 -0.05 0.054012834 30.571838
0.14865194 -0.05 0.05366788 30.871208
0.14517627 -0.05 0.053315074 31.18162
0.14175197 -0.05 0.052954513 31.492854
0.13837832 -0.05 0.05258636 31.799575
0.13505466 -0.05 0.052210732 32.098864
0.1317803 -0.05 0.051827803 32.388425
0.12855459 -0.05 0.051437683 32.668166
0.12537689 -0.05 0.051040402 32.935792
0.12224654 -0.05 0.050636146 33.190577
0.11916291 -0.05 0.050225037 33.433916
0.1161254 -0.05 0.049807093 33.664394
0.1131334 -0.05 0.049382392 33.881909
0.1101863 -0.05 0.048951066 34.086165
0.10728353 -0.05 0.048513148 34.278732
0.10442451 -0.05 0.048068735 34.45866
0.10160865 -0.05 0.047617982 34.62842
0.098835413 -0.05 0.047160834 34.787628
0.096104261 -0.05 0.046697346 34.934633
0.09341464 -0.05 0.046227661 35.072016
0.090766046 -0.05 0.045751696 35.199805
0.08815796 -0.05 0.045269517 35.315734
0.085589872 -0.05 0.04478119 35.423303
0.083061288 -0.05 0.044286743 35.520549
0.080571719 -0.05 0.043786217 35.611116
0.078120718 -0.05 0.043279507 35.692411
0.075707826 -0.05 0.042766605 35.761446
0.073332578 -0.05 0.042247583 35.819421
0.070994529 -0.05 0.041722461 35.868482
0.068693273 -0.05 0.041191125 35.907186
0.066428398 -0.05 0.040653533 35.934362
0.064199496 -0.05 0.040109682 35.951571
0.062006188 -0.05 0.039559479 35.958825
0.059848106 -0.05 0.039002838 35.95492
0.057724885 -0.05 0.038439698 35.94016
0.055636186 -0.05 0.037869954 35.914969
0.053581658 -0.05 0.037293571 35.878534
0.051561011 -0.05 0.036710362 35.833935
0.049573954 -0.05 0.036120171 35.775758
0.047620184 -0.05 0.035522934 35.708516
0.045699449 -0.05 0.034918468 35.630441
0.043811512 -0.05 0.034306583 35.543559
0.041956183 -0.05 0.033687005 35.446729
0.040133259 -0.05 0.033059538 35.335844
0.038342545 -0.05 0.032424032 35.212042
0.03658391 -0.05 0.031780202 35.084913
0.034857252 -0.05 0.031127737 34.949901
0.033162495 -0.05 0.030466326 34.800361
0.03149959 -0.05 0.029795652 34.63897
0.02986853 -0.05 0.029115361 34.470322
0.028269372 -0.05 0.028425021 34.288268
0.026702187 -0.05 0.027724252 34.094827
0.025167125 -0.05 0.027012569 33.892936
0.023664397 -0.05 0.026289455 33.678872
0.022194266 -0.05 0.025554401 33.454441
0.020757114 -0.05 0.02480678 33.219312
0.019353351 -0.05 0.024046021 32.970318
0.017983552 -0.05 0.023271401 32.712806
0.01664838 -0.05 0.022482161 32.437411
0.015348588 -0.05 0.021677559 32.149247
0.01408512 -0.05 0.02085675 31.841512
0.012859105 -0.05 0.020018874 31.515509
0.011671862 -0.05 0.01916304 31.164815
0.010524941 -0.05 0.018288248 30.78856
0.0094200915 -0.05 0.017393446 30.370263
0.0083593752 -0.05 0.016477776 29.903545
0.0073452804 -0.05 0.015540394 29.383433
0.0063805373 -0.05 0.014580208 28.797379
0.0054682018 -0.05 0.013596482 28.118107
0.0046120063 -0.05 0.012589044 27.322786
0.0038158199 -0.05 0.011557505 26.373336
0.0030837307 -0.05 0.010502031 25.241525
0.0024204815 -0.05 0.0094239264 23.896187
0.0018306509 -0.05 0.0083246511 22.298009
0.0013185876 -0.05 0.0072066891 20.402854
0.00088823098 -0.05 0.0060740647 18.181404
0.00054267545 -0.05 0.0049311681 15.607782
0.00028369099 -0.05 0.0037832986 12.576904
0.00011138095 -0.05 0.0026365137 9.2983331
2.4268685e-05 -0.05 0.0014968838 5.8748354
0.99689018 -0.05 -0.0023276585 6.8324346
0.9906804 -0.05 -0.0014087019 1.9796471
0.98446959 -0.05 -0.00049672884 1.3666245
0.97825776 -0.05 0.00040828738 0.24528002
0.97204493 -0.05 0.0013064529 0.6132814
0.96583114 -0.05 0.0021979261 0.53278048
0.95961639 -0.05 0.0030826898 0.40127647
0.95340071 -0.05 0.0039608074 0.30207237
0.94718411 -0.05 0.0048324338 0.63631042
0.94096661 -0.05 0.0056976531 0.87245728
0.93474822 -0.05 0.0065564705 1.0976232
0.92852896 -0.05 0.0074089459 1.3159074
0.92230885 -0.05 0.008255156 1.503671
0.91608789 -0.05 0.0090951355 1.6728518
0.90986611 -0.05 0.0099290352 1.8358287
0.90364352 -0.05 0.010756853 1.993631
0.89742013 -0.05 0.01157862 2.1433735
0.89119596 -0.05 0.012394474 2.2874931
0.88497103 -0.05 0.013204425 2.4286526
0.87874531 -0.05 0.014008419 2.566524
0.87251886 -0.05 0.014806593 2.7030171
0.86629165 -0.05 0.015599014 2.8389065
0.86006373 -0.05 0.016385655 2.9739612
0.85383508 -0.05 0.017166601 3.1083303
0.84760573 -0.05 0.017941915 3.2417306
0.84137569 -0.05 0.018711584 3.3724167
0.83514494 -0.05 0.019475571 3.5021195
0.82891352 -0.05 0.020234051 3.6329417
0.82268143 -0.05 0.020986985 3.7626218
0.81644866 -0.05 0.021734326 3.8901611
0.81021524 -0.05 0.022476153 4.0215157
0.80398115 -0.05 0.023212476 4.1531655
0.79774643 -0.05 0.023943327 4.2847557
0.79151107 -0.05 0.02466866 4.4146105
0.78527508 -0.05 0.025388562 4.5456891
0.77903845 -0.05 0.026102999 4.6781225
0.77280121 -0.05 0.026811938 4.80736
0.76656334 -0.05 0.02751544 4.9391292
0.76032486 -0.05 0.028213491 5.074212
0.75408576 -0.05 0.028906081 5.2094745
0.74784607 -0.05 0.029593182 5.3468771
0.74160578 -0.05 0.030274778 5.4873151
0.73536488 -0.05 0.030950856 5.6347485
0.72912338 -0.05 0.031621379 5.7832536
0.7228813 -0.05 0.03228638 5.9305502
0.71663863 -0.05 0.03294589 6.0792648
0.71039536 -0.05 0.033599733 6.2324676
0.70415151 -0.05 0.034247962 6.3867044
0.69790707 -0.05 0.034890541 6.5430244
0.69166204 -0.05 0.035527376 6.6980441
0.68541644 -0.05 0.036158527 6.8593459
0.67917026 -0.05 0.036783891 7.0227038
0.6729235 -0.05 0.037403481 7.1866345
0.66667615 -0.05 0.038017181 7.3551219
0.66042823 -0.05 0.03862489 7.5251294
0.65417973 -0.05 0.039226693 7.6976944
0.64793066 -0.05 0.039822502 7.8730052
0.64168101 -0.05 0.040412153 8.0476183
0.63543077 -0.05 0.040995613 8.2257157
0.62917995 -0.05 0.041572883 8.4116113
0.62292857 -0.05 0.042143827 8.615068
0.61667659 -0.05 0.042708359 8.84056
0.61042404 -0.05 0.043266476 9.0814331
0.6041709 -0.05 0.043818034 9.3257471
0.59791719 -0.05 0.044362961 9.5700129
0.5916629 -0.05 0.044901173 9.8154318
0.58540802 -0.05 0.045432579 10.061236
0.57915255 -0.05 0.045957063 10.308494
0.5728965 -0.05 0.046474481 10.555601
0.56663987 -0.05 0.046984799 10.807327
0.56038266 -0.05 0.047487895 11.060348
0.55412484 -0.05 0.04798361 11.315055
0.54786645 -0.05 0.04847187 11.572835
0.54160747 -0.05 0.048952512 11.833898
0.5353479 -0.05 0.049425398 12.098101
0.52908774 -0.05 0.049890458 12.365094
0.52282699 -0.05 0.050347518 12.635301
0.51656565 -0.05 0.050796437 12.908904
0.51030372 -0.05 0.051237046 13.186867
0.5040412 -0.05 0.051669209 13.467657
0.4977781 -0.05 0.052092802 13.752883
0.49151442 -0.05 0.052507627 14.041955
0.48525013 -0.05 0.052913479 14.334894
0.47898528 -0.05 0.053310236 14.631808
0.47271984 -0.05 0.053697759 14.934591
0.46645383 -0.05 0.054075798 15.241734
0.46018723 -0.05 0.054444137 15.552401
0.45392007 -0.05 0.054802615 15.864951
0.44765233 -0.05 0.055151049 16.180265
0.44138404 -0.05 0.055489211 16.497331
0.43511519 -0.05 0.055816862 16.817354
0.42884578 -0.05 0.056133791 17.139838
0.42257583 -0.05 0.0564398 17.464303
0.41630534 -0.05 0.056734639 17.791194
0.41003434 -0.05 0.05701803 18.121152
0.40376281 -0.05 0.057289748 18.453387
0.39749078 -0.05 0.057549508 18.788519
0.39121825 -0.05 0.057797002 19.125004
0.38494525 -0.05 0.058032013 19.464229
0.37867178 -0.05 0.0582543 19.806641
0.37239786 -0.05 0.058463467 20.150853
0.3661235 -0.05 0.058659191 20.496089
0.35984874 -0.05 0.058841232 20.841841
0.35357357 -0.05 0.059009251 21.186576
0.34729804 -0.05 0.059162894 21.531783
0.34102217 -0.05 0.059301771 21.877392
0.33474599 -0.05 0.059425554 22.226673
0.32846951 -0.05 0.059533853 22.583366
0.32219279 -0.05 0.059626241 22.950204
0.31591584 -0.05 0.05970233 23.330494
0.30963872 -0.05 0.059761704 23.723452
0.30336145 -0.05 0.05980393 24.103512
