# p  FACE_DATA 448
# x y z  p
0.29507602 -0.05 -0.061585558 99494.163
0.28944258 -0.05 -0.061378867 99489.885
0.28389078 -0.05 -0.061160592 99486.612
0.27841949 -0.05 -0.060930907 99483.267
0.27302759 -0.05 -0.060690039 99480.069
0.26771396 -0.05 -0.060438247 99476.993
0.26247751 -0.05 -0.060175771 99474.087
0.25731719 -0.05 -0.059902818 99471.315
0.25223191 -0.05 -0.059619642 99468.572
0.24722063 -0.05 -0.059326451 99466.005
0.24228234 -0.05 -0.059023398 99463.591
0.23741602 -0.05 -0.058710725 99461.29
0.23262065 -0.05 -0.058388641 99459.111
0.22789527 -0.05 -0.058057377 99457.008
0.22323888 -0.05 -0.057717142 99455.064
0.21865055 -0.05 -0.057368078 99453.287
0.21412932 -0.05 -0.057010416 99451.557
0.20967428 -0.05 -0.056644349 99450.005
0.2052845 -0.05 -0.056269977 99448.612
0.20095906 -0.05 -0.055887536 99447.309
0.19669711 -0.05 -0.05549721 99446.196
0.19249775 -0.05 -0.055099201 99445.115
0.18836011 -0.05 -0.054693683 99444.214
0.18428336 -0.05 -0.054280714 99443.513
0.18026664 -0.05 -0.053860515 99442.851
0.17630914 -0.05 -0.053433253 99442.416
0.17241004 -0.05 -0.052999059 99442.059
0.16856854 -0.05 -0.052558116 99441.855
0.16478385 -0.05 -0.052110557 99441.751
0.16105518 -0.05 -0.051656495 99441.869
0.1573818 -0.05 -0.051196036 99442.132
0.15376292 -0.05 -0.050729376 99442.502
0.15019781 -0.05 -0.050256609 99443.108
0.14668574 -0.05 -0.049777848 99443.769
0.14322599 -0.05 -0.04929322 99444.6
0.13981786 -0.05 -0.048802795 99445.576
0.13646064 -0.05 -0.048306708 99446.759
0.13315365 -0.05 -0.047805051 99448.136
0.12989621 -0.05 -0.047297971 99449.59
0.12668766 -0.05 -0.046785555 99451.307
0.12352734 -0.05 -0.046267806 99453.284
0.12041462 -0.05 -0.045744887 99455.285
0.11734884 -0.05 -0.045216896 99457.42
0.1143294 -0.05 -0.044683828 99459.755
0.1113557 -0.05 -0.044145736 99462.35
0.10842713 -0.05 -0.043602729 99465.105
0.10554309 -0.05 -0.043054822 99468.213
0.10270302 -0.05 -0.042502086 99471.425
0.099906324 -0.05 -0.041944655 99474.848
0.097152464 -0.05 -0.041382453 99478.585
0.094440897 -0.05 -0.040815514 99482.38
0.091771066 -0.05 -0.040243962 99486.367
0.089142473 -0.05 -0.039667694 99490.847
0.086554595 -0.05 -0.039086755 99495.474
0.084006919 -0.05 -0.038501192 99500.536
0.08149895 -0.05 -0.037911015 99505.69
0.079030199 -0.05 -0.037316245 99511.121
0.076600223 -0.05 -0.036716762 99516.84
0.074208564 -0.05 -0.03611254 99522.923
0.071854755 -0.05 -0.035503633 99529.299
0.06953835 -0.05 -0.034890044 99536.102
0.067258947 -0.05 -0.034271642 99543.438
0.065016137 -0.05 -0.033648373 99551.093
0.062809511 -0.05 -0.033020215 99559.02
0.060638695 -0.05 -0.032387063 99567.27
0.058503323 -0.05 -0.031748817 99575.97
0.056403036 -0.05 -0.031105398 99585.3
0.054337495 -0.05 -0.030456694 99595.227
0.052306355 -0.05 -0.029802656 99605.645
0.05030933 -0.05 -0.029143081 99616.786
0.048346135 -0.05 -0.028477809 99628.222
0.046416472 -0.05 -0.027806759 99640.382
0.044520095 -0.05 -0.02712974 99653.184
0.042656773 -0.05 -0.026446556 99666.915
0.040826327 -0.05 -0.025756921 99681.828
0.039028564 -0.05 -0.025060636 99697.593
0.037263294 -0.05 -0.024357541 99713.86
0.035530395 -0.05 -0.023647347 99730.754
0.033829778 -0.05 -0.02292974 99748.935
0.032161379 -0.05 -0.022204405 99768.739
0.030525161 -0.05 -0.021471024 99790.139
0.02892113 -0.05 -0.020729243 99812.937
0.02734936 -0.05 -0.019978633 99836.682
0.025809936 -0.05 -0.019218817 99861.795
0.024303028 -0.05 -0.018449315 99889.387
0.022828864 -0.05 -0.017669619 99919.456
0.021387726 -0.05 -0.01687923 99951.684
0.019980023 -0.05 -0.016077537 99985.81
0.018606183 -0.05 -0.015263984 100021.47
0.01726681 -0.05 -0.01443787 100059.62
0.015962593 -0.05 -0.013598463 100100.84
0.014694315 -0.05 -0.01274505 100146.61
0.013462951 -0.05 -0.011876821 100196.84
0.012269661 -0.05 -0.010992962 100252.19
0.011115797 -0.05 -0.010092629 100313.43
0.010002947 -0.05 -0.0091748866 100380.61
0.0089328986 -0.05 -0.0082387463 100452.86
0.0079077442 -0.05 -0.0072834295 100529.8
0.0069300029 -0.05 -0.0063081885 100611.33
0.006002444 -0.05 -0.0053120351 100698.76
0.0051281494 -0.05 -0.0042943512 100791.98
0.0043108554 -0.05 -0.0032551043 100891.04
0.0035544431 -0.05 -0.002194055 100994.09
0.0028629911 -0.05 -0.0011115236 101099.32
0.0022411893 -0.05 -8.994335e-06 101204.17
0.0016935576 -0.05 0.0011119009 101305.16
0.0012243472 -0.05 0.002248514 101396.7
0.00083734163 -0.05 0.0033966741 101473.72
0.00053546623 -0.05 0.0045518765 101534.6
0.00032028835 -0.05 0.0057087585 101572.36
0.00019168106 -0.05 0.0068612628 101583.95
0.00014793814 -0.05 0.0080033799 101570.6
0.99643918 -0.05 -0.026056163 100145.42
0.99019896 -0.05 -0.026738481 100045.42
0.98395798 -0.05 -0.027413782 100047.68
0.97771623 -0.05 -0.028082092 100028.6
0.97147377 -0.05 -0.028743519 100017.99
0.96523059 -0.05 -0.029398222 100006.33
0.95898671 -0.05 -0.030046184 99996.482
0.95274214 -0.05 -0.030687468 99987.076
0.94649691 -0.05 -0.031322231 99978.37
0.94025102 -0.05 -0.031950558 99970.021
0.93400449 -0.05 -0.032572454 99962.264
0.92775734 -0.05 -0.03318798 99954.751
0.92150955 -0.05 -0.033797212 99947.678
0.91526117 -0.05 -0.034400185 99940.883
0.9090122 -0.05 -0.034997053 99934.277
0.90276264 -0.05 -0.035587812 99927.988
0.89651252 -0.05 -0.036172494 99921.889
0.89026185 -0.05 -0.036751237 99915.872
0.88401063 -0.05 -0.037324053 99910.056
0.87775886 -0.05 -0.037890886 99904.521
0.87150657 -0.05 -0.038451876 99898.965
0.86525376 -0.05 -0.039007088 99893.627
0.85900043 -0.05 -0.039556497 99888.404
0.85274661 -0.05 -0.040100188 99883.278
0.8464923 -0.05 -0.040638225 99878.178
0.8402375 -0.05 -0.041170593 99873.253
0.83398222 -0.05 -0.041697257 99868.503
0.82772648 -0.05 -0.042218393 99863.594
0.82147028 -0.05 -0.042733961 99858.967
0.81521362 -0.05 -0.043243914 99854.293
0.8089565 -0.05 -0.043748333 99849.757
0.80269894 -0.05 -0.044247226 99845.201
0.79644096 -0.05 -0.044740627 99840.722
0.79018253 -0.05 -0.04522849 99836.333
0.78392368 -0.05 -0.045710902 99831.86
0.77766442 -0.05 -0.046187828 99827.563
0.77140473 -0.05 -0.046659237 99823.254
0.76514464 -0.05 -0.04712519 99819.007
0.75888414 -0.05 -0.047585671 99814.755
0.75262323 -0.05 -0.048040673 99810.527
0.74636194 -0.05 -0.048490167 99806.313
0.74010025 -0.05 -0.048934137 99802.088
0.73383816 -0.05 -0.04937257 99797.881
0.72757569 -0.05 -0.049805428 99793.791
0.72131285 -0.05 -0.050232747 99789.611
0.71504962 -0.05 -0.050654557 99785.422
0.70878602 -0.05 -0.051070681 99781.425
0.70252204 -0.05 -0.051481173 99777.248
0.6962577 -0.05 -0.051885996 99773.235
0.68999299 -0.05 -0.052285059 99769.121
0.68372791 -0.05 -0.052678417 99765.012
0.67746248 -0.05 -0.053065973 99760.915
0.67119669 -0.05 -0.053447736 99756.705
0.66493054 -0.05 -0.053823591 99752.651
0.65866403 -0.05 -0.054193437 99748.612
0.65239717 -0.05 -0.054557359 99744.513
0.64612998 -0.05 -0.054915272 99740.431
0.63986243 -0.05 -0.055267007 99736.385
0.63359453 -0.05 -0.055612534 99732.295
0.62732629 -0.05 -0.055951854 99728.1
0.62105772 -0.05 -0.05628483 99723.979
0.61478881 -0.05 -0.056611376 99719.802
0.60851956 -0.05 -0.05693149 99715.588
0.60224999 -0.05 -0.057245028 99711.503
0.59598009 -0.05 -0.057551918 99707.344
0.58970986 -0.05 -0.057852076 99703.237
0.5834393 -0.05 -0.058145409 99699.017
0.57716842 -0.05 -0.058431804 99694.83
0.57089724 -0.05 -0.058711116 99690.611
0.56462573 -0.05 -0.058983311 99686.311
0.55835391 -0.05 -0.059248267 99681.997
0.55208179 -0.05 -0.059505824 99677.69
0.54580936 -0.05 -0.05975591 99673.288
0.53953664 -0.05 -0.059998361 99668.955
0.53326362 -0.05 -0.06023304 99664.552
0.5269903 -0.05 -0.060459874 99660.122
0.52071671 -0.05 -0.060678693 99655.634
0.51444283 -0.05 -0.060889354 99651.105
0.50816868 -0.05 -0.06109169 99646.627
0.50189426 -0.05 -0.061285562 99642.138
0.49561959 -0.05 -0.061470849 99637.568
0.48934466 -0.05 -0.061647351 99632.999
0.48306949 -0.05 -0.061814865 99628.444
0.47679408 -0.05 -0.061973268 99623.829
0.47051844 -0.05 -0.062122422 99619.147
0.46424258 -0.05 -0.062262076 99614.485
0.45796652 -0.05 -0.062392017 99609.817
0.45169026 -0.05 -0.062512081 99605.171
0.44541381 -0.05 -0.062622086 99600.482
0.43913719 -0.05 -0.062721807 99595.807
0.43286041 -0.05 -0.062811002 99591.144
0.4265835 -0.05 -0.062889462 99586.502
0.42030645 -0.05 -0.062956989 99581.812
0.41402929 -0.05 -0.063013334 99577.141
0.40775205 -0.05 -0.063058219 99572.477
0.40147473 -0.05 -0.06309142 99567.839
0.39519735 -0.05 -0.063112654 99563.209
0.38891995 -0.05 -0.063121609 99558.647
0.38264254 -0.05 -0.063118073 99554.037
0.37636516 -0.05 -0.063101806 99549.441
0.37008781 -0.05 -0.06307241 99544.942
0.36381056 -0.05 -0.063029564 99540.436
0.3575334 -0.05 -0.062973029 99535.923
0.35125639 -0.05 -0.062902469 99531.475
0.34497956 -0.05 -0.062817528 99527.035
0.33870294 -0.05 -0.062717819 99522.673
0.33242658 -0.05 -0.062603016 99518.272
0.32615053 -0.05 -0.062472728 99513.984
0.31987482 -0.05 -0.062326531 99509.777
0.31359952 -0.05 -0.062164038 99505.788
0.30732467 -0.05 -0.061984836 99501.523
0.30105033 -0.05 -0.061788493 99496.395
0.29919041 -0.05 0.058351794 99475.122
0.29355605 -0.05 0.058531641 99468.414
0.28800234 -0.05 0.058694335 99461.173
0.28252817 -0.05 0.058840128 99454.175
0.27713244 -0.05 0.058969325 99447.245
0.27181405 -0.05 0.059082259 99440.502
0.26657193 -0.05 0.059179244 99433.814
0.26140503 -0.05 0.059260562 99427.362
0.2563123 -0.05 0.059326537 99420.919
0.25129271 -0.05 0.05937745 99414.63
0.24634526 -0.05 0.059413523 99408.346
0.24146894 -0.05 0.059435066 99402.283
0.23666278 -0.05 0.059442358 99396.359
0.23192581 -0.05 0.059435695 99390.487
0.22725706 -0.05 0.059415355 99384.7
0.22265559 -0.05 0.059381541 99379.152
0.21812048 -0.05 0.059334553 99373.598
0.21365082 -0.05 0.059274643 99368.222
0.2092457 -0.05 0.059201975 99362.937
0.20490423 -0.05 0.059116848 99357.727
0.20062555 -0.05 0.059019505 99352.708
0.19640879 -0.05 0.058910207 99347.699
0.19225308 -0.05 0.058789188 99342.838
0.18815761 -0.05 0.058656562 99338.226
0.18412155 -0.05 0.058512611 99333.591
0.18014407 -0.05 0.058357554 99329.188
0.17622438 -0.05 0.058191579 99324.74
0.17236169 -0.05 0.058014923 99320.427
0.16855522 -0.05 0.057827776 99316.175
0.16480422 -0.05 0.057630302 99312.179
0.16110791 -0.05 0.057422655 99308.267
0.15746556 -0.05 0.05720509 99304.387
0.15387643 -0.05 0.056977743 99300.675
0.15033981 -0.05 0.056740784 99296.994
0.14685498 -0.05 0.056494387 99293.502
0.14342125 -0.05 0.056238669 99290.159
0.14003794 -0.05 0.055973812 99286.873
0.13670435 -0.05 0.055699957 99283.814
0.13341981 -0.05 0.055417297 99280.726
0.13018368 -0.05 0.055125961 99277.903
0.12699532 -0.05 0.054826001 99275.269
0.12385408 -0.05 0.054517622 99272.594
0.12075931 -0.05 0.054200965 99270.054
0.11771045 -0.05 0.053876067 99267.67
0.11470686 -0.05 0.053543022 99265.375
0.11174796 -0.05 0.053201983 99263.136
0.10883316 -0.05 0.052853002 99261.215
0.10596189 -0.05 0.05249619 99259.277
0.10313357 -0.05 0.052131722 99257.436
0.10034765 -0.05 0.05175956 99255.99
0.09760361 -0.05 0.051379774 99254.483
0.094900888 -0.05 0.050992523 99253.076
0.092238984 -0.05 0.050597743 99252.155
0.089617378 -0.05 0.050195513 99251.217
0.087035564 -0.05 0.049785915 99250.62
0.084493046 -0.05 0.049368992 99249.943
0.081989341 -0.05 0.0489448 99249.548
0.079523996 -0.05 0.048513248 99249.547
0.077096554 -0.05 0.048074343 99249.829
0.07470655 -0.05 0.04762817 99250.159
0.072353541 -0.05 0.047174762 99250.703
0.070037119 -0.05 0.046714019 99251.706
0.067756871 -0.05 0.046245912 99252.872
0.065512385 -0.05 0.045770447 99254.329
0.063303284 -0.05 0.045287545 99256.15
0.061129195 -0.05 0.044797133 99258.354
0.058989752 -0.05 0.044299156 99260.872
0.056884612 -0.05 0.043793525 99263.767
0.054813426 -0.05 0.043280215 99266.826
0.052775896 -0.05 0.042759044 99270.752
0.050771727 -0.05 0.04222987 99274.906
0.048800615 -0.05 0.041692635 99279.607
0.0468623 -0.05 0.041147163 99284.671
0.044956541 -0.05 0.040593274 99290.423
0.043083139 -0.05 0.040030699 99296.982
0.041241886 -0.05 0.039459248 99304.191
0.039432584 -0.05 0.038878778 99311.978
0.037655091 -0.05 0.038289005 99321.067
0.035909294 -0.05 0.037689626 99330.839
0.034195111 -0.05 0.037080328 99341.68
0.032512483 -0.05 0.036460799 99353.463
0.03086139 -0.05 0.035830683 99366.679
0.029241877 -0.05 0.035189549 99381.268
0.027654004 -0.05 0.034537013 99397.322
0.026097904 -0.05 0.033872585 99415.2
0.024573774 -0.05 0.033195745 99434.937
0.023081862 -0.05 0.032505973 99456.789
0.021622528 -0.05 0.031802632 99481.203
0.020196166 -0.05 0.031085138 99508.045
0.01880333 -0.05 0.030352751 99538.377
0.017444656 -0.05 0.029604694 99571.888
0.016120875 -0.05 0.028840199 99609.391
0.014832909 -0.05 0.028058395 99650.889
0.013581855 -0.05 0.027258388 99697.097
0.012369005 -0.05 0.026439245 99748.441
0.01119588 -0.05 0.025599921 99806.499
0.010064194 -0.05 0.024739311 99871.261
0.0089759836 -0.05 0.023856492 99943.611
0.0079337091 -0.05 0.022950546 100025.11
0.006940066 -0.05 0.022020299 100116.15
0.0059980866 -0.05 0.021064921 100215.43
0.005111496 -0.05 0.020084125 100325.86
0.0042841499 -0.05 0.019077405 100446.23
0.0035201393 -0.05 0.018044803 100575.5
0.0028242447 -0.05 0.016987476 100712.26
0.0022010873 -0.05 0.015906745 100854.09
0.0016550897 -0.05 0.014804958 100996.78
0.0011903124 -0.05 0.013686018 101135.12
0.00080998255 -0.05 0.012554218 101263.52
0.0005160313 -0.05 0.011414802 101375
0.00030874712 -0.05 0.01027382 101465.04
0.00018683962 -0.05 0.0091373853 101531.17
0.99647001 -0.05 -0.025157339 99977.271
0.99029122 -0.05 -0.024048992 99981.254
0.98411118 -0.05 -0.022947595 99974.479
0.97792992 -0.05 -0.02185312 99977.081
0.97174745 -0.05 -0.020765462 99974.648
0.96556381 -0.05 -0.019684464 99974.638
0.95937902 -0.05 -0.018610142 99973.407
0.95319308 -0.05 -0.017542436 99972.766
0.94700602 -0.05 -0.016481189 99971.794
0.94081788 -0.05 -0.015426318 99970.985
0.93462865 -0.05 -0.01437782 99970.049
0.92843835 -0.05 -0.013335634 99969.174
0.92224702 -0.05 -0.012299685 99968.218
0.91605464 -0.05 -0.011269937 99967.302
0.90986126 -0.05 -0.010246241 99966.313
0.90366688 -0.05 -0.0092285987 99965.354
0.89747152 -0.05 -0.0082169803 99964.326
0.89127521 -0.05 -0.00721125 99963.313
0.88507793 -0.05 -0.0062113943 99962.237
0.8788797 -0.05 -0.0052174699 99961.167
0.87268055 -0.05 -0.0042293401 99960.032
0.86648049 -0.05 -0.0032469376 99958.907
0.86027952 -0.05 -0.0022702908 99957.712
0.85407765 -0.05 -0.0012993138 99956.521
0.84787491 -0.05 -0.00033394447 99955.259
0.84167131 -0.05 0.00062580332 99953.989
0.83546683 -0.05 0.0015798933 99952.651
0.8292615 -0.05 0.0025284999 99951.286
0.82305534 -0.05 0.003471583 99949.854
0.81684833 -0.05 0.0044090962 99948.395
0.81064049 -0.05 0.0053411186 99946.857
0.80443183 -0.05 0.0062676596 99945.294
0.79822236 -0.05 0.0071887505 99943.652
0.79201209 -0.05 0.0081043461 99941.972
0.78580102 -0.05 0.0090145325 99940.206
0.77958915 -0.05 0.0099192746 99938.405
0.77337648 -0.05 0.010818541 99936.517
0.76716303 -0.05 0.011712392 99934.583
0.7609488 -0.05 0.012600814 99932.533
0.7547338 -0.05 0.013483795 99930.446
0.74851803 -0.05 0.014361308 99928.252
0.74230148 -0.05 0.015233338 99925.991
0.73608416 -0.05 0.01609987 99923.61
0.72986608 -0.05 0.016960868 99921.158
0.72364724 -0.05 0.017816365 99918.583
0.71742765 -0.05 0.018666392 99915.926
0.71120728 -0.05 0.019510773 99913.121
0.70498616 -0.05 0.020349558 99910.213
0.69876429 -0.05 0.021182715 99907.179
0.69254165 -0.05 0.02201015 99904.035
0.68631826 -0.05 0.022831919 99900.734
0.68009411 -0.05 0.023647924 99897.332
0.67386921 -0.05 0.024458174 99893.757
0.66764355 -0.05 0.025262554 99890.09
0.66141711 -0.05 0.026060964 99886.177
0.65518993 -0.05 0.026853488 99882.156
0.64896199 -0.05 0.02764004 99877.947
0.64273328 -0.05 0.028420453 99873.638
0.6365038 -0.05 0.029194696 99869.114
0.63027356 -0.05 0.02996277 99864.477
0.62404254 -0.05 0.030724539 99859.671
0.61781074 -0.05 0.031479916 99854.728
0.61157817 -0.05 0.032228898 99849.511
0.60534482 -0.05 0.032971343 99844.211
0.59911069 -0.05 0.033707177 99838.707
0.59287577 -0.05 0.034436318 99833.101
0.58664005 -0.05 0.035158673 99827.233
0.58040354 -0.05 0.035874127 99821.277
0.57416624 -0.05 0.036582536 99815.147
0.56792813 -0.05 0.037283868 99808.903
0.56168921 -0.05 0.037977999 99802.381
0.55544948 -0.05 0.038664769 99795.785
0.54920894 -0.05 0.039344105 99789.001
0.54296757 -0.05 0.040015846 99782.17
0.53672538 -0.05 0.040679853 99775.141
0.53048236 -0.05 0.041336054 99768.012
0.52423851 -0.05 0.041984277 99760.732
0.51799382 -0.05 0.042624382 99753.421
0.51174828 -0.05 0.043256199 99746.148
0.5055019 -0.05 0.043879591 99738.828
0.49925467 -0.05 0.044494434 99731.334
0.49300659 -0.05 0.045100532 99723.747
0.48675765 -0.05 0.045697681 99716.091
0.48050784 -0.05 0.046285755 99708.401
0.47425718 -0.05 0.046864617 99700.659
0.46800565 -0.05 0.047434017 99692.858
0.46175324 -0.05 0.047993741 99684.946
0.45549997 -0.05 0.048543624 99677.052
0.44924581 -0.05 0.049083485 99669.146
0.44299078 -0.05 0.049613097 99661.2
0.43673488 -0.05 0.05013222 99653.178
0.43047809 -0.05 0.050640642 99645.138
0.42422042 -0.05 0.051138167 99637.12
0.41796189 -0.05 0.051624542 99629.132
0.41170247 -0.05 0.052099493 99621.069
0.40544218 -0.05 0.05256279 99612.914
0.39918102 -0.05 0.053014151 99604.803
0.39291899 -0.05 0.053453266 99596.778
0.3866561 -0.05 0.053879918 99588.726
0.38039235 -0.05 0.054293868 99580.566
0.37412775 -0.05 0.054694717 99572.431
0.36786231 -0.05 0.055082143 99564.29
0.36159604 -0.05 0.055455903 99556.192
0.35532895 -0.05 0.055815662 99548.128
0.34906105 -0.05 0.056161062 99539.991
0.34279236 -0.05 0.056491714 99531.832
0.33652289 -0.05 0.056807289 99523.639
0.33025266 -0.05 0.057107394 99515.615
0.3239817 -0.05 0.057391605 99507.613
0.31771001 -0.05 0.057659531 99499.4
0.31143763 -0.05 0.057910755 99490.877
0.30516459 -0.05 0.058144843 99483.591
