# wallShearStress  FACE_DATA 448
# x y z  wallShearStress_x wallShearStress_y wallShearStress_z
0.29507602 -0.05 -0.061585558 -7.0851665 -1.6533085e-16 0.25252131
0.28944258 -0.05 -0.061378867 -6.9449753 8.3576325e-17 0.26561085
0.28389078 -0.05 -0.061160592 -6.8665022 -3.3305935e-16 0.28074233
0.27841949 -0.05 -0.060930907 -6.7861928 -6.387351e-17 0.29564442
0.27302759 -0.05 -0.060690039 -6.7119575 -2.2946405e-16 0.31047832
0.26771396 -0.05 -0.060438247 -6.6416413 4.2862755e-17 0.32534929
0.26247751 -0.05 -0.060175771 -6.5751182 9.8273142e-17 0.34019165
0.25731719 -0.05 -0.059902818 -6.5120353 -5.9310702e-17 0.35508099
0.25223191 -0.05 -0.059619642 -6.4525511 3.0251522e-16 0.36993264
0.24722063 -0.05 -0.059326451 -6.3964568 3.5905255e-16 0.38498352
0.24228234 -0.05 -0.059023398 -6.3428691 3.0728634e-16 0.39999942
0.23741602 -0.05 -0.058710725 -6.2920134 4.7468485e-16 0.41503574
0.23262065 -0.05 -0.058388641 -6.2435017 -4.0458296e-16 0.43007375
0.22789527 -0.05 -0.058057377 -6.1966014 -7.7455032e-18 0.44516788
0.22323888 -0.05 -0.057717142 -6.1522592 9.8103351e-17 0.46046671
0.21865055 -0.05 -0.057368078 -6.110135 1.4779848e-16 0.47588798
0.21412932 -0.05 -0.057010416 -6.0703988 -4.6563164e-16 0.49134785
0.20967428 -0.05 -0.056644349 -6.0332259 3.0140681e-16 0.50712928
0.2052845 -0.05 -0.056269977 -5.9978428 1.49213e-16 0.52299417
0.20095906 -0.05 -0.055887536 -5.9646658 2.7332045e-16 0.53899677
0.19669711 -0.05 -0.05549721 -5.9337356 9.1738296e-17 0.55523367
0.19249775 -0.05 -0.055099201 -5.9049921 -3.0963659e-16 0.5716253
0.18836011 -0.05 -0.054693683 -5.8786869 -1.2947368e-16 0.58844055
0.18428336 -0.05 -0.054280714 -5.8539226 -1.8070156e-16 0.60547366
0.18026664 -0.05 -0.053860515 -5.8312086 1.346072e-16 0.62267144
0.17630914 -0.05 -0.053433253 -5.810891 3.5890978e-16 0.64034868
0.17241004 -0.05 -0.052999059 -5.7922847 -1.71929e-16 0.65818311
0.16856854 -0.05 -0.052558116 -5.7760097 -3.2415645e-16 0.67649139
0.16478385 -0.05 -0.052110557 -5.7615681 -5.1146357e-16 0.69512881
0.16105518 -0.05 -0.051656495 -5.748729 -2.6533133e-16 0.71422441
0.1573818 -0.05 -0.051196036 -5.7369313 -1.0791069e-16 0.73351374
0.15376292 -0.05 -0.050729376 -5.7268372 3.0438042e-16 0.75322023
0.15019781 -0.05 -0.050256609 -5.718343 2.1174762e-16 0.77346097
0.14668574 -0.05 -0.049777848 -5.7113816 3.5495665e-16 0.79412512
0.14322599 -0.05 -0.04929322 -5.7065088 -4.2340272e-16 0.81548072
0.13981786 -0.05 -0.048802795 -5.7030819 -8.404923e-19 0.83732109
0.13646064 -0.05 -0.048306708 -5.701178 -3.1095661e-16 0.85968781
0.13315365 -0.05 -0.047805051 -5.7006695 -5.1857466e-16 0.88253969
0.12989621 -0.05 -0.047297971 -5.7018114 1.4837095e-16 0.90597694
0.12668766 -0.05 -0.046785555 -5.7044981 -7.700198e-17 0.9302046
0.12352734 -0.05 -0.046267806 -5.7074539 5.7251478e-16 0.95472609
0.12041462 -0.05 -0.045744887 -5.7115549 -8.9788452e-17 0.97979497
0.11734884 -0.05 -0.045216896 -5.7177288 -3.7979298e-16 1.005936
0.1143294 -0.05 -0.044683828 -5.7251745 -4.0883954e-17 1.0328835
0.1113557 -0.05 -0.044145736 -5.7335914 -2.6928012e-16 1.0604469
0.10842713 -0.05 -0.043602729 -5.7428028 4.2346604e-16 1.0887118
0.10554309 -0.05 -0.043054822 -5.7526464 4.9262712e-16 1.1177231
0.10270302 -0.05 -0.042502086 -5.7629345 -9.2154765e-17 1.147259
0.099906324 -0.05 -0.041944655 -5.7751171 3.6767627e-16 1.1780843
0.097152464 -0.05 -0.041382453 -5.7885361 3.7683525e-16 1.2099097
0.094440897 -0.05 -0.040815514 -5.8033839 3.6883617e-16 1.242654
0.091771066 -0.05 -0.040243962 -5.8204983 -5.965352e-16 1.2769637
0.089142473 -0.05 -0.039667694 -5.8374448 1.0908167e-16 1.3119932
0.086554595 -0.05 -0.039086755 -5.8529947 9.7618991e-17 1.347363
0.084006919 -0.05 -0.038501192 -5.8685397 3.1480642e-17 1.383732
0.08149895 -0.05 -0.037911015 -5.8837403 8.2919092e-17 1.4208955
0.079030199 -0.05 -0.037316245 -5.9005846 5.5860769e-16 1.4599579
0.076600223 -0.05 -0.036716762 -5.918268 5.3459905e-16 1.5004799
0.074208564 -0.05 -0.03611254 -5.936787 1.2513964e-16 1.5422829
0.071854755 -0.05 -0.035503633 -5.956161 -1.3916427e-17 1.5854613
0.06953835 -0.05 -0.034890044 -5.9764105 2.1368836e-16 1.6303977
0.067258947 -0.05 -0.034271642 -5.9962351 -3.4836995e-16 1.6764444
0.065016137 -0.05 -0.033648373 -6.0153386 1.3235071e-16 1.7235582
0.062809511 -0.05 -0.033020215 -6.03506 -8.5312081e-16 1.7727103
0.060638695 -0.05 -0.032387063 -6.0549496 -1.0443202e-17 1.8238708
0.058503323 -0.05 -0.031748817 -6.0737171 6.1127446e-16 1.8766378
0.056403036 -0.05 -0.031105398 -6.0906217 7.046286e-16 1.9306466
0.054337495 -0.05 -0.030456694 -6.1050166 -8.6930408e-16 1.9857536
0.052306355 -0.05 -0.029802656 -6.1184136 2.356134e-16 2.042821
0.05030933 -0.05 -0.029143081 -6.1318619 2.6153541e-16 2.1024407
0.048346135 -0.05 -0.028477809 -6.1445341 -6.1726618e-16 2.1644508
0.046416472 -0.05 -0.027806759 -6.1592455 -2.04258e-16 2.2300039
0.044520095 -0.05 -0.02712974 -6.1728181 -7.2028587e-16 2.2983717
0.042656773 -0.05 -0.026446556 -6.185659 7.6173695e-16 2.3699174
0.040826327 -0.05 -0.025756921 -6.1949852 1.7493159e-16 2.4425993
0.039028564 -0.05 -0.025060636 -6.1988927 1.3417693e-15 2.516042
0.037263294 -0.05 -0.024357541 -6.1986155 1.6195626e-16 2.5928809
0.035530395 -0.05 -0.023647347 -6.1963698 -1.254675e-16 2.6749925
0.033829778 -0.05 -0.02292974 -6.1893589 -7.5882255e-16 2.759397
0.032161379 -0.05 -0.022204405 -6.1711174 -1.4891452e-16 2.8430693
0.030525161 -0.05 -0.021471024 -6.1416395 -2.7015674e-16 2.9261544
0.02892113 -0.05 -0.020729243 -6.1070786 -1.024136e-15 3.0116764
0.02734936 -0.05 -0.019978633 -6.0752983 -2.5972941e-17 3.1035576
0.025809936 -0.05 -0.019218817 -6.0522311 1.5762386e-16 3.2036586
0.024303028 -0.05 -0.018449315 -6.0197708 3.1245758e-16 3.3015566
0.022828864 -0.05 -0.017669619 -5.9563322 -6.6945417e-16 3.388711
0.021387726 -0.05 -0.01687923 -5.8468767 1.0214949e-15 3.4648163
0.019980023 -0.05 -0.016077537 -5.6829546 2.095039e-16 3.5337335
0.018606183 -0.05 -0.015263984 -5.4674404 -3.9623106e-16 3.6019968
0.01726681 -0.05 -0.01443787 -5.2386407 3.6119642e-16 3.684385
0.015962593 -0.05 -0.013598463 -5.0269995 1.8477721e-16 3.7975897
0.014694315 -0.05 -0.01274505 -4.8380064 -5.5568769e-16 3.9567123
0.013462951 -0.05 -0.011876821 -4.6644445 9.7386511e-16 4.1614356
0.012269661 -0.05 -0.010992962 -4.5130474 6.9499165e-16 4.4072015
0.011115797 -0.05 -0.010092629 -4.3948149 2.8767832e-16 4.6879231
0.010002947 -0.05 -0.0091748866 -4.3473351 -3.800518e-16 5.0049045
0.0089328986 -0.05 -0.0082387463 -4.3427807 3.0534945e-16 5.3334613
0.0079077442 -0.05 -0.0072834295 -4.2995824 9.6397277e-17 5.6118333
0.0069300029 -0.05 -0.0063081885 -4.1833157 -1.6886381e-16 5.8078016
0.006002444 -0.05 -0.0053120351 -3.9675762 5.1925342e-16 5.9128997
0.0051281494 -0.05 -0.0042943512 -3.6433496 -4.5422928e-16 5.8994123
0.0043108554 -0.05 -0.0032551043 -3.2400989 8.9454215e-17 5.7463086
0.0035544431 -0.05 -0.002194055 -2.7759851 2.1122445e-16 5.4492882
0.0028629911 -0.05 -0.0011115236 -2.2838136 -1.0696882e-16 5.0238205
0.0022411893 -0.05 -8.994335e-06 -1.7862488 -6.475076e-16 4.4457379
0.0016935576 -0.05 0.0011119009 -1.3099965 1.6917683e-16 3.7425048
0.0012243472 -0.05 0.002248514 -0.88504405 5.0166093e-16 2.9359352
0.00083734163 -0.05 0.0033966741 -0.54334187 6.3026734e-18 2.0475493
0.00053546623 -0.05 0.0045518765 -0.32726213 -5.5443666e-16 1.1601971
0.00032028835 -0.05 0.0057087585 -0.19319907 -1.3283105e-16 0.52213867
0.00019168106 -0.05 0.0068612628 -0.14507658 1.8097766e-17 -0.05060202
0.00014793814 -0.05 0.0080033799 -0.14029124 -8.5190075e-19 -0.64181863
0.99643918 -0.05 -0.026056163 -36.08252 1.771209e-16 -3.9580042
0.99019896 -0.05 -0.026738481 -39.954628 9.3423131e-17 -4.3645044
0.98395798 -0.05 -0.027413782 -40.77854 1.4614114e-15 -4.3599668
0.97771623 -0.05 -0.028082092 -40.269224 2.1532022e-15 -4.2744002
0.97147377 -0.05 -0.028743519 -40.025775 -1.850469e-15 -4.2036974
0.96523059 -0.05 -0.029398222 -39.698399 3.2441042e-16 -4.1268826
0.95898671 -0.05 -0.030046184 -39.382706 1.0614896e-15 -4.0511769
0.95274214 -0.05 -0.030687468 -39.055908 -1.900112e-16 -3.9763971
0.94649691 -0.05 -0.031322231 -38.726984 -6.1199925e-16 -3.9023437
0.94025102 -0.05 -0.031950558 -38.394458 -7.1142324e-16 -3.829201
0.93400449 -0.05 -0.032572454 -38.058389 5.4034869e-16 -3.7563096
0.92775734 -0.05 -0.03318798 -37.71868 1.5241308e-15 -3.6847134
0.92150955 -0.05 -0.033797212 -37.37405 -2.0705309e-16 -3.6133247
0.91526117 -0.05 -0.034400185 -37.023616 1.9603264e-16 -3.5429273
0.9090122 -0.05 -0.034997053 -36.66816 6.6048875e-16 -3.4730792
0.90276264 -0.05 -0.035587812 -36.308319 -5.3509261e-16 -3.4034531
0.89651252 -0.05 -0.036172494 -35.945772 2.7245233e-16 -3.334852
0.89026185 -0.05 -0.036751237 -35.583363 -9.9573936e-16 -3.2672066
0.88401063 -0.05 -0.037324053 -35.223098 -3.0767757e-16 -3.2002591
0.87775886 -0.05 -0.037890886 -34.865683 3.3846283e-16 -3.1344918
0.87150657 -0.05 -0.038451876 -34.51237 1.0330349e-15 -3.0705568
0.86525376 -0.05 -0.039007088 -34.161959 -2.6706266e-16 -3.0073703
0.85900043 -0.05 -0.039556497 -33.812526 -1.0119943e-15 -2.945447
0.85274661 -0.05 -0.040100188 -33.463262 1.0539319e-17 -2.8845019
0.8464923 -0.05 -0.040638225 -33.112067 -6.766244e-17 -2.8242582
0.8402375 -0.05 -0.041170593 -32.75668 5.0571426e-16 -2.7641785
0.83398222 -0.05 -0.041697257 -32.395253 -9.2125194e-16 -2.7045695
0.82772648 -0.05 -0.042218393 -32.030437 6.8247704e-16 -2.6457919
0.82147028 -0.05 -0.042733961 -31.664113 5.1780619e-16 -2.5867178
0.81521362 -0.05 -0.043243914 -31.300203 -7.6256026e-16 -2.5290772
0.8089565 -0.05 -0.043748333 -30.94077 5.3106102e-16 -2.4721937
0.80269894 -0.05 -0.044247226 -30.58643 -9.9261756e-17 -2.4166991
0.79644096 -0.05 -0.044740627 -30.236623 -2.5923252e-16 -2.3620321
0.79018253 -0.05 -0.04522849 -29.890097 8.1522429e-16 -2.3084814
0.78392368 -0.05 -0.045710902 -29.544369 4.732002e-16 -2.2559445
0.77766442 -0.05 -0.046187828 -29.19485 -5.2763045e-16 -2.2034741
0.77140473 -0.05 -0.046659237 -28.837645 1.6818385e-17 -2.1514422
0.76514464 -0.05 -0.04712519 -28.47372 7.5253261e-17 -2.0993279
0.75888414 -0.05 -0.047585671 -28.107199 4.9929665e-16 -2.0474358
0.75262323 -0.05 -0.048040673 -27.745141 -3.8296352e-16 -1.9962227
0.74636194 -0.05 -0.048490167 -27.390823 -1.1660263e-15 -1.9460555
0.74010025 -0.05 -0.048934137 -27.044766 -1.6978575e-16 -1.8970739
0.73383816 -0.05 -0.04937257 -26.705544 -4.2537138e-16 -1.8492166
0.72757569 -0.05 -0.049805428 -26.369743 -3.2411315e-16 -1.8023327
0.72131285 -0.05 -0.050232747 -26.03202 -8.9578445e-16 -1.756264
0.71504962 -0.05 -0.050654557 -25.68712 -2.2030458e-17 -1.710132
0.70878602 -0.05 -0.051070681 -25.330057 -8.1456495e-16 -1.6633909
0.70252204 -0.05 -0.051481173 -24.965765 4.6106381e-16 -1.6169235
0.6962577 -0.05 -0.051885996 -24.603803 -3.054593e-16 -1.5702622
0.68999299 -0.05 -0.052285059 -24.251811 -4.3788063e-17 -1.5251224
0.68372791 -0.05 -0.052678417 -23.909391 1.0529478e-16 -1.4809219
0.67746248 -0.05 -0.053065973 -23.574463 -7.8829574e-16 -1.4378261
0.67119669 -0.05 -0.053447736 -23.24519 -2.5062872e-16 -1.3958247
0.66493054 -0.05 -0.053823591 -22.914668 4.7662425e-17 -1.354231
0.65866403 -0.05 -0.054193437 -22.572689 1.2769418e-16 -1.3130634
0.65239717 -0.05 -0.054557359 -22.212099 4.4420518e-16 -1.271396
0.64612998 -0.05 -0.054915272 -21.834743 -4.3264017e-16 -1.228617
0.63986243 -0.05 -0.055267007 -21.456199 1.0349969e-16 -1.1858785
0.63359453 -0.05 -0.055612534 -21.086671 4.5031247e-16 -1.144114
0.62732629 -0.05 -0.055951854 -20.726472 2.7206329e-16 -1.1033806
0.62105772 -0.05 -0.05628483 -20.37613 3.9407314e-16 -1.0636236
0.61478881 -0.05 -0.056611376 -20.034293 -2.8291786e-16 -1.0256395
0.60851956 -0.05 -0.05693149 -19.693871 7.8202533e-16 -0.98857985
0.60224999 -0.05 -0.057245028 -19.3401 1.5308935e-16 -0.95152805
0.59598009 -0.05 -0.057551918 -18.95742 6.1445849e-17 -0.91381554
0.58970986 -0.05 -0.057852076 -18.557182 2.1070541e-16 -0.87510295
0.5834393 -0.05 -0.058145409 -18.162037 -1.5494652e-16 -0.83694994
0.57716842 -0.05 -0.058431804 -17.771076 -1.3844049e-16 -0.79912695
0.57089724 -0.05 -0.058711116 -17.384077 -4.4160276e-16 -0.76172062
0.56462573 -0.05 -0.058983311 -17.00307 1.1778306e-16 -0.7251163
0.55835391 -0.05 -0.059248267 -16.629719 -3.3529321e-16 -0.68927114
0.55208179 -0.05 -0.059505824 -16.26148 -1.36124e-16 -0.65429005
0.54580936 -0.05 -0.05975591 -15.897659 3.0140641e-16 -0.62022086
0.53953664 -0.05 -0.059998361 -15.538174 -3.2859843e-16 -0.58679631
0.53326362 -0.05 -0.06023304 -15.182424 -1.0273428e-16 -0.5543268
0.5269903 -0.05 -0.060459874 -14.830394 4.0878113e-16 -0.522564
0.52071671 -0.05 -0.060678693 -14.480894 2.5928744e-16 -0.49148495
0.51444283 -0.05 -0.060889354 -14.133623 1.8191352e-16 -0.46114509
0.50816868 -0.05 -0.06109169 -13.789472 -1.71043e-17 -0.43149491
0.50189426 -0.05 -0.061285562 -13.452126 -9.447264e-17 -0.40272258
0.49561959 -0.05 -0.061470849 -13.123038 -3.0683505e-16 -0.37471577
0.48934466 -0.05 -0.061647351 -12.80404 2.9349402e-16 -0.34753727
0.48306949 -0.05 -0.061814865 -12.495507 -1.0697097e-17 -0.32126843
0.47679408 -0.05 -0.061973268 -12.196267 -3.2411521e-16 -0.29589436
0.47051844 -0.05 -0.062122422 -11.908937 -4.14018e-17 -0.27102609
0.46424258 -0.05 -0.062262076 -11.635424 8.0162987e-17 -0.2468632
0.45796652 -0.05 -0.062392017 -11.376424 1.0763249e-16 -0.22359193
0.45169026 -0.05 -0.062512081 -11.130913 -1.0870237e-16 -0.20118157
0.44541381 -0.05 -0.062622086 -10.895392 -6.1609752e-17 -0.17942616
0.43913719 -0.05 -0.062721807 -10.668387 4.742018e-17 -0.15817273
0.43286041 -0.05 -0.062811002 -10.448693 -2.4436909e-17 -0.13741401
0.4265835 -0.05 -0.062889462 -10.236053 -1.4175512e-16 -0.1172053
0.42030645 -0.05 -0.062956989 -10.030161 7.4783625e-17 -0.097619218
0.41402929 -0.05 -0.063013334 -9.8310121 6.3856189e-17 -0.078466202
0.40775205 -0.05 -0.063058219 -9.6378861 2.5337132e-17 -0.059560577
0.40147473 -0.05 -0.06309142 -9.4506863 -1.6791655e-18 -0.03986644
0.39519735 -0.05 -0.063112654 -9.2690453 1.5003276e-18 -0.020136091
0.38891995 -0.05 -0.063121609 -9.0929291 -1.1034069e-18 -0.0016510035
0.38264254 -0.05 -0.063118073 -8.9220801 -1.7250017e-17 0.016902813
0.37636516 -0.05 -0.063101806 -8.7568307 1.9889095e-17 0.03561517
0.37008781 -0.05 -0.06307241 -8.5963348 -2.8789027e-18 0.052544171
0.36381056 -0.05 -0.063029564 -8.4405365 1.0319104e-17 0.069383968
0.3575334 -0.05 -0.062973029 -8.2896252 3.5375992e-17 0.086244349
0.35125639 -0.05 -0.062902469 -8.143405 -3.7093045e-17 0.10302123
0.34497956 -0.05 -0.062817528 -8.001526 6.464126e-17 0.11967942
0.33870294 -0.05 -0.062717819 -7.8642129 1.4729167e-16 0.13620779
0.33242658 -0.05 -0.062603016 -7.7313901 -5.6077481e-17 0.15256059
0.32615053 -0.05 -0.062472728 -7.6030325 9.0700573e-17 0.1691618
0.31987482 -0.05 -0.062326531 -7.4783045 -3.1593654e-16 0.18562526
0.31359952 -0.05 -0.062164038 -7.3574404 2.7422707e-16 0.20208913
0.30732467 -0.05 -0.061984836 -7.2442125 -1.4648338e-16 0.21866914
0.30105033 -0.05 -0.061788493 -7.1887742 2.6922297e-16 0.23616089
0.29919041 -0.05 0.058351794 -7.0198683 3.4013814e-16 0.21937681
0.29355605 -0.05 0.058531641 -7.2899744 -1.2010885e-16 0.2087582
0.28800234 -0.05 0.058694335 -7.4967953 8.9867207e-18 0.1955587
0.28252817 -0.05 0.058840128 -7.706637 6.499489e-17 0.18038425
0.27713244 -0.05 0.058969325 -7.9159469 -1.7847467e-16 0.16398151
0.27181405 -0.05 0.059082259 -8.1258258 3.863602e-17 0.14621625
0.26657193 -0.05 0.059179244 -8.3355668 -6.7849673e-17 0.12722919
0.26140503 -0.05 0.059260562 -8.5448537 8.0023302e-17 0.10708532
0.2563123 -0.05 0.059326537 -8.7529586 5.1137902e-17 0.086455016
0.25129271 -0.05 0.05937745 -8.9600246 2.2486035e-17 0.063652502
0.24634526 -0.05 0.059413523 -9.1657514 4.7894351e-18 0.036715094
0.24146894 -0.05 0.059435066 -9.3699875 4.1996459e-18 0.0097869165
0.23666278 -0.05 0.059442358 -9.5712439 -5.4429145e-19 -0.019067909
0.23192581 -0.05 0.059435695 -9.7696548 2.9667847e-17 -0.049721729
0.22725706 -0.05 0.059415355 -9.9668679 -9.1023667e-18 -0.079761641
0.22265559 -0.05 0.059381541 -10.162481 1.6191442e-17 -0.11080955
0.21812048 -0.05 0.059334553 -10.356337 1.4058143e-16 -0.1435631
0.21365082 -0.05 0.059274643 -10.548695 6.2782017e-17 -0.17809732
0.2092457 -0.05 0.059201975 -10.738628 2.9878943e-17 -0.21476262
0.20490423 -0.05 0.059116848 -10.926725 1.4126536e-16 -0.25295738
0.20062555 -0.05 0.059019505 -11.112932 -1.3554853e-16 -0.29270338
0.19640879 -0.05 0.058910207 -11.29737 8.5840767e-17 -0.33388406
0.19225308 -0.05 0.058789188 -11.480055 1.0210868e-16 -0.37690843
0.18815761 -0.05 0.058656562 -11.659448 2.0213174e-16 -0.42145107
0.18412155 -0.05 0.058512611 -11.835953 -2.1258532e-16 -0.46727531
0.18014407 -0.05 0.058357554 -12.009593 -1.0381867e-16 -0.51484049
0.17622438 -0.05 0.058191579 -12.179793 -6.8455886e-17 -0.5637042
0.17236169 -0.05 0.058014923 -12.346941 9.4738017e-17 -0.61429076
0.16855522 -0.05 0.057827776 -12.50998 1.3283421e-16 -0.6663177
0.16480422 -0.05 0.057630302 -12.668328 2.4442552e-16 -0.71998277
0.16110791 -0.05 0.057422655 -12.821358 -5.3358373e-17 -0.77485378
0.15746556 -0.05 0.05720509 -12.970087 4.1387538e-17 -0.8312468
0.15387643 -0.05 0.056977743 -13.11428 3.0015909e-16 -0.88928905
0.15033981 -0.05 0.056740784 -13.254236 1.0851509e-16 -0.94872779
0.14685498 -0.05 0.056494387 -13.391156 -2.7023163e-16 -1.0099129
0.14342125 -0.05 0.056238669 -13.525727 -3.8261362e-17 -1.0725416
0.14003794 -0.05 0.055973812 -13.659697 7.7763321e-17 -1.1367873
0.13670435 -0.05 0.055699957 -13.792468 -3.597953e-16 -1.2026561
0.13341981 -0.05 0.055417297 -13.922067 2.2426488e-16 -1.2698649
0.13018368 -0.05 0.055125961 -14.046506 -1.1494488e-17 -1.3388266
0.12699532 -0.05 0.054826001 -14.162767 3.136508e-16 -1.4087758
0.12385408 -0.05 0.054517622 -14.27068 6.8837391e-17 -1.4798651
0.12075931 -0.05 0.054200965 -14.368032 2.5629124e-16 -1.5526622
0.11771045 -0.05 0.053876067 -14.454893 4.5327387e-16 -1.627007
0.11470686 -0.05 0.053543022 -14.533896 1.4344927e-16 -1.7030988
0.11174796 -0.05 0.053201983 -14.609647 -2.6751241e-16 -1.7817029
0.10883316 -0.05 0.052853002 -14.686279 2.2302291e-16 -1.8631296
0.10596189 -0.05 0.05249619 -14.766814 3.0847248e-16 -1.9472461
0.10313357 -0.05 0.052131722 -14.853757 -6.6515853e-16 -2.035236
0.10034765 -0.05 0.05175956 -14.946903 -1.0841752e-16 -2.1266699
0.09760361 -0.05 0.051379774 -15.042659 -1.7909813e-18 -2.2208169
0.094900888 -0.05 0.050992523 -15.14232 -6.7023206e-16 -2.3191761
0.092238984 -0.05 0.050597743 -15.243243 6.3718532e-16 -2.4209842
0.089617378 -0.05 0.050195513 -15.34489 2.0599018e-16 -2.5257956
0.087035564 -0.05 0.049785915 -15.449201 -2.1796821e-18 -2.634812
0.084493046 -0.05 0.049368992 -15.555659 -2.8401915e-16 -2.7477042
0.081989341 -0.05 0.0489448 -15.665532 2.2592193e-16 -2.865848
0.079523996 -0.05 0.048513248 -15.776178 -6.1722973e-16 -2.9881794
0.077096554 -0.05 0.048074343 -15.887035 4.2914837e-16 -3.114412
0.07470655 -0.05 0.04762817 -15.998713 -2.5902939e-16 -3.245275
0.072353541 -0.05 0.047174762 -16.110701 -1.8273172e-16 -3.3817016
0.070037119 -0.05 0.046714019 -16.220197 -3.5637129e-17 -3.5228673
0.067756871 -0.05 0.046245912 -16.325616 -2.7066484e-16 -3.6683613
0.065512385 -0.05 0.045770447 -16.427011 -8.1816682e-16 -3.8190692
0.063303284 -0.05 0.045287545 -16.522112 -4.1564369e-16 -3.9745864
0.061129195 -0.05 0.044797133 -16.609475 -9.2501728e-16 -4.1347073
0.058989752 -0.05 0.044299156 -16.68806 -1.5574659e-16 -4.2997443
0.056884612 -0.05 0.043793525 -16.757615 -5.6129988e-16 -4.4699194
0.054813426 -0.05 0.043280215 -16.817413 9.602955e-17 -4.6459332
0.052775896 -0.05 0.042759044 -16.868091 3.1169836e-16 -4.8276782
0.050771727 -0.05 0.04222987 -16.907723 -1.0783217e-15 -5.0140798
0.048800615 -0.05 0.041692635 -16.938398 3.5719547e-16 -5.2069593
0.0468623 -0.05 0.041147163 -16.958298 3.2385559e-16 -5.4062396
0.044956541 -0.05 0.040593274 -16.967402 -7.9287429e-16 -5.6124969
0.043083139 -0.05 0.040030699 -16.964408 -7.8867301e-16 -5.8246508
0.041241886 -0.05 0.039459248 -16.948939 -9.0939365e-16 -6.0438088
0.039432584 -0.05 0.038878778 -16.918847 2.3462523e-16 -6.2725225
0.037655091 -0.05 0.038289005 -16.872716 3.137794e-16 -6.5069779
0.035909294 -0.05 0.037689626 -16.811875 6.778958e-16 -6.7450357
0.034195111 -0.05 0.037080328 -16.735213 1.031201e-16 -6.9910817
0.032512483 -0.05 0.036460799 -16.640591 -3.786557e-16 -7.2454465
0.03086139 -0.05 0.035830683 -16.526483 5.8546798e-16 -7.5075224
0.029241877 -0.05 0.035189549 -16.390801 -6.3249132e-16 -7.7755952
0.027654004 -0.05 0.034537013 -16.2333 6.9217866e-16 -8.0505675
0.026097904 -0.05 0.033872585 -16.051731 -5.9808364e-17 -8.3310432
0.024573774 -0.05 0.033195745 -15.844008 1.9247444e-16 -8.6162795
0.023081862 -0.05 0.032505973 -15.608424 7.0731352e-16 -8.9054748
0.021622528 -0.05 0.031802632 -15.342458 8.0915059e-16 -9.1962045
0.020196166 -0.05 0.031085138 -15.044017 -2.4334263e-16 -9.487869
0.01880333 -0.05 0.030352751 -14.710607 -5.1132015e-16 -9.7758649
0.017444656 -0.05 0.029604694 -14.33836 1.0694635e-15 -10.056902
0.016120875 -0.05 0.028840199 -13.926943 -2.4872787e-16 -10.327019
0.014832909 -0.05 0.028058395 -13.473184 -3.4648263e-16 -10.581023
0.013581855 -0.05 0.027258388 -12.976287 -6.3560382e-16 -10.813657
0.012369005 -0.05 0.026439245 -12.433778 -2.9297692e-16 -11.021946
0.01119588 -0.05 0.025599921 -11.837899 1.4771464e-16 -11.196483
0.010064194 -0.05 0.024739311 -11.183185 -7.0690242e-16 -11.324347
0.0089759836 -0.05 0.023856492 -10.47008 -4.1799904e-16 -11.394449
0.0079337091 -0.05 0.022950546 -9.6959412 -1.0163435e-16 -11.389171
0.006940066 -0.05 0.022020299 -8.8613848 3.5655804e-16 -11.293445
0.0059980866 -0.05 0.021064921 -7.9756352 -2.5604607e-16 -11.105894
0.005111496 -0.05 0.020084125 -7.0523198 -6.116206e-17 -10.800125
0.0042841499 -0.05 0.019077405 -6.0926587 -5.3210638e-17 -10.354813
0.0035201393 -0.05 0.018044803 -5.1249859 -6.5629665e-16 -9.7637805
0.0028242447 -0.05 0.016987476 -4.1725581 2.6651366e-16 -9.0207737
0.0022010873 -0.05 0.015906745 -3.2626838 1.0946188e-16 -8.1248105
0.0016550897 -0.05 0.014804958 -2.4231145 -2.0508256e-16 -7.0900276
0.0011903124 -0.05 0.013686018 -1.6796444 3.3806034e-17 -5.9487952
0.00080998255 -0.05 0.012554218 -1.0630577 -1.4629386e-16 -4.74555
0.0005160313 -0.05 0.011414802 -0.63031801 -5.3152044e-16 -3.535172
0.00030874712 -0.05 0.01027382 -0.36451913 7.227278e-17 -2.3627642
0.00018683962 -0.05 0.0091373853 -0.20992752 -4.6337125e-17 -1.344562
0.99647001 -0.05 -0.025157339 -0.013909324 -4.4975065e-16 0.25177772
0.99029122 -0.05 -0.024048992 0.0056886113 -1.4448457e-16 0.00024893368
0.98411118 -0.05 -0.022947595 0.0059130273 4.6237262e-16 -0.00085852825
0.97792992 -0.05 -0.02185312 -0.00026475968 -5.5556282e-16 0.00010347088
0.97174745 -0.05 -0.020765462 0.0035658657 4.8901554e-17 -0.00038215456
0.96556381 -0.05 -0.019684464 0.0018369911 9.2802619e-16 -0.00013439648
0.95937902 -0.05 -0.018610142 0.0027838985 1.0100286e-16 -0.00031586486
0.95319308 -0.05 -0.017542436 0.0024063059 8.6408271e-18 -0.00022442301
0.94700602 -0.05 -0.016481189 0.0026931849 -1.0906095e-16 -0.00028373636
0.94081788 -0.05 -0.015426318 0.0026347707 6.3719136e-16 -0.00026359799
0.93462865 -0.05 -0.01437782 0.0027678262 -6.7399307e-16 -0.00028759287
0.92843835 -0.05 -0.013335634 0.0028252881 -2.1244125e-16 -0.00028688658
0.92224702 -0.05 -0.012299685 0.0029257306 -3.7867068e-16 -0.00030562856
0.91605464 -0.05 -0.011269937 0.0030038039 -3.516233e-16 -0.00030880057
0.90986126 -0.05 -0.010246241 0.0031116499 -3.626088e-16 -0.00032378911
0.90366688 -0.05 -0.0092285987 0.0032025728 4.0108886e-16 -0.00033563046
0.89747152 -0.05 -0.0082169803 0.0033702759 2.0356447e-18 -0.00034904972
0.89127521 -0.05 -0.00721125 0.0034631034 -9.0190352e-18 -0.00034923938
0.88507793 -0.05 -0.0062113943 0.0036227032 2.4003585e-16 -0.00036688822
0.8788797 -0.05 -0.0052174699 0.0037288745 2.6003067e-16 -0.00037060761
0.87268055 -0.05 -0.0042293401 0.0038753053 7.4081345e-16 -0.00038683224
0.86648049 -0.05 -0.0032469376 0.0040595618 -3.0636676e-16 -0.00039165342
0.86027952 -0.05 -0.0022702908 0.004335657 -1.3084759e-16 -0.00039391117
0.85407765 -0.05 -0.0012993138 0.0046308971 2.9142772e-16 -0.00039407729
0.84787491 -0.05 -0.00033394447 0.0049979194 -4.9820517e-16 -0.00040438457
0.84167131 -0.05 0.00062580332 0.005929603 3.1201795e-16 -0.00041209552
0.83546683 -0.05 0.0015798933 0.0077213455 -2.7793011e-16 -0.0007359737
0.8292615 -0.05 0.0025284999 0.007110862 -5.7210732e-16 -0.00070320898
0.82305534 -0.05 0.003471583 0.0080767888 6.9783798e-16 -0.000840183
0.81684833 -0.05 0.0044090962 0.0076666621 7.8976575e-16 -0.00076512047
0.81064049 -0.05 0.0053411186 0.0078119413 -2.8457421e-16 -0.00076598523
0.80443183 -0.05 0.0062676596 0.0074150256 -7.4286375e-16 -0.00071262507
0.79822236 -0.05 0.0071887505 0.0069953865 -6.6235052e-16 -0.0006302891
0.79201209 -0.05 0.0081043461 0.0063691355 -2.6827145e-16 -0.00050795175
0.78580102 -0.05 0.0090145325 0.0053710086 6.0184114e-16 -0.0003302484
0.77958915 -0.05 0.0099192746 0.0039334008 -9.806147e-16 -0.00010464771
0.77337648 -0.05 0.010818541 0.0020125075 -8.1693546e-16 0.00017675208
0.76716303 -0.05 0.011712392 -0.00042269942 -1.6123539e-17 0.00052761318
0.7609488 -0.05 0.012600814 -0.0034762417 -7.0556543e-16 0.00089101924
0.7547338 -0.05 0.013483795 -0.0063472468 1.4085747e-15 0.0013015796
0.74851803 -0.05 0.014361308 -0.0095860888 3.3465422e-16 0.001760282
0.74230148 -0.05 0.015233338 -0.013399728 -3.0016234e-18 0.0022955491
0.73608416 -0.05 0.01609987 -0.017890288 1.1509042e-15 0.0029132718
0.72986608 -0.05 0.016960868 -0.023092208 -8.5467237e-16 0.0036189456
0.72364724 -0.05 0.017816365 -0.029068222 -4.4478077e-16 0.0044155321
0.71742765 -0.05 0.018666392 -0.03582941 1.1800716e-15 0.0053088704
0.71120728 -0.05 0.019510773 -0.043500036 -1.0547718e-16 0.0063117697
0.70498616 -0.05 0.020349558 -0.0522386 3.472608e-16 0.0074190281
0.69876429 -0.05 0.021182715 -0.062316304 5.8644904e-16 0.008677041
0.69254165 -0.05 0.02201015 -0.07379948 -4.1474822e-16 0.010091369
0.68631826 -0.05 0.022831919 -0.086958825 -5.5225515e-16 0.011703235
0.68009411 -0.05 0.023647924 -0.10159632 -4.7753423e-16 0.013472029
0.67386921 -0.05 0.024458174 -0.11788556 3.9720879e-16 0.015415653
0.66764355 -0.05 0.025262554 -0.13569474 6.9003791e-16 0.017535811
0.66141711 -0.05 0.026060964 -0.1553369 -8.7073249e-17 0.019863093
0.65518993 -0.05 0.026853488 -0.17671096 1.3049053e-15 0.022380752
0.64896199 -0.05 0.02764004 -0.200688 -5.2224966e-16 0.025163146
0.64273328 -0.05 0.028420453 -0.22755813 3.7010085e-16 0.028183434
0.6365038 -0.05 0.029194696 -0.25688558 -3.1948844e-16 0.031484371
0.63027356 -0.05 0.02996277 -0.28847376 9.8868033e-16 0.03498011
0.62404254 -0.05 0.030724539 -0.32231855 -6.6319864e-16 0.038688675
0.61781074 -0.05 0.031479916 -0.35829089 -3.6207217e-16 0.042587952
0.61157817 -0.05 0.032228898 -0.39713221 1.0028179e-15 0.046748423
0.60534482 -0.05 0.032971343 -0.43848953 -5.6220236e-16 0.051085491
0.59911069 -0.05 0.033707177 -0.4824446 -7.3427938e-16 0.055642868
0.59287577 -0.05 0.034436318 -0.52897542 -3.5438616e-16 0.060397313
0.58664005 -0.05 0.035158673 -0.57847748 -6.0760914e-16 0.06538594
0.58040354 -0.05 0.035874127 -0.63093778 -3.1112989e-16 0.070558373
0.57416624 -0.05 0.036582536 -0.68624022 7.5282155e-17 0.075939865
0.56792813 -0.05 0.037283868 -0.74438062 1.3258665e-16 0.081523355
0.56168921 -0.05 0.037977999 -0.80582791 1.5203215e-16 0.087334142
0.55544948 -0.05 0.038664769 -0.87028928 5.0842677e-16 0.093263586
0.54920894 -0.05 0.039344105 -0.93829785 1.2509654e-16 0.099420104
0.54296757 -0.05 0.040015846 -1.0096706 -2.246233e-17 0.10574527
0.53672538 -0.05 0.040679853 -1.0841391 7.6612667e-16 0.11223121
0.53048236 -0.05 0.041336054 -1.1617049 -5.0225749e-16 0.11881096
0.52423851 -0.05 0.041984277 -1.2431576 -7.318911e-17 0.12568894
0.51799382 -0.05 0.042624382 -1.3331543 3.6110544e-16 0.13355634
0.51174828 -0.05 0.043256199 -1.439245 2.3389795e-16 0.14256745
0.5055019 -0.05 0.043879591 -1.5513379 -1.4094924e-16 0.15114429
0.49925467 -0.05 0.044494434 -1.6626087 1.7240316e-16 0.15883797
0.49300659 -0.05 0.045100532 -1.7751558 2.1949542e-16 0.16675762
0.48675765 -0.05 0.045697681 -1.8912081 3.5700842e-17 0.17501696
0.48050784 -0.05 0.046285755 -2.0106241 -1.2829271e-16 0.18319845
0.47425718 -0.05 0.046864617 -2.1335922 -3.9430488e-16 0.19126525
0.46800565 -0.05 0.047434017 -2.2603137 -1.4098954e-16 0.19920638
0.46175324 -0.05 0.047993741 -2.3911186 -7.4084932e-17 0.2070474
0.45549997 -0.05 0.048543624 -2.5255809 -3.2110938e-16 0.2147331
0.44924581 -0.05 0.049083485 -2.6633474 1.6675996e-17 0.22218565
0.44299078 -0.05 0.049613097 -2.8047123 3.7176083e-16 0.22936257
0.43673488 -0.05 0.05013222 -2.9501201 3.7721243e-16 0.23627601
0.43047809 -0.05 0.050640642 -3.0994444 2.1334287e-16 0.24290446
0.42422042 -0.05 0.051138167 -3.2523358 6.6709115e-16 0.24919239
0.41796189 -0.05 0.051624542 -3.4085341 7.4510849e-16 0.25504653
0.41170247 -0.05 0.052099493 -3.5684631 -4.2896757e-16 0.26044744
0.40544218 -0.05 0.05256279 -3.7327078 1.7363247e-16 0.26539247
0.39918102 -0.05 0.053014151 -3.9010022 -8.0759929e-17 0.26980058
0.39291899 -0.05 0.053453266 -4.0723849 -1.5004627e-16 0.27364178
0.3866561 -0.05 0.053879918 -4.2471616 3.3140631e-16 0.27687184
0.38039235 -0.05 0.054293868 -4.4262306 -1.7178653e-16 0.27939112
0.37412775 -0.05 0.054694717 -4.6095234 -3.8396363e-16 0.28112695
0.36786231 -0.05 0.055082143 -4.7962518 -2.1723499e-16 0.28214367
0.36159604 -0.05 0.055455903 -4.9866382 2.8846856e-16 0.28230739
0.35532895 -0.05 0.055815662 -5.1806343 1.6000311e-16 0.2815232
0.34906105 -0.05 0.056161062 -5.3786085 -5.6379066e-17 0.27970327
0.34279236 -0.05 0.056491714 -5.5810883 4.4645656e-18 0.27683732
0.33652289 -0.05 0.056807289 -5.7878308 -1.1574802e-16 0.27291488
0.33025266 -0.05 0.057107394 -5.9982141 -3.1987186e-16 0.26771653
0.3239817 -0.05 0.057391605 -6.2115846 2.247243e-16 0.26125357
0.31771001 -0.05 0.057659531 -6.4291343 -1.8445338e-16 0.2534724
0.31143763 -0.05 0.057910755 -6.6510113 -1.348619e-16 0.24464759
0.30516459 -0.05 0.058144843 -6.8213556 1.1731468e-16 0.23240626
