# yPlus  FACE_DATA 448
# x y z  yPlus
0.29507602 -0.05 -0.061585558 23.014751
0.28944258 -0.05 -0.061378867 22.595318
0.28389078 -0.05 -0.061160592 22.366413
0.27841949 -0.05 -0.060930907 22.136252
0.27302759 -0.05 -0.060690039 21.919462
0.26771396 -0.05 -0.060438247 21.711886
0.26247751 -0.05 -0.060175771 21.513629
0.25731719 -0.05 -0.059902818 21.323101
0.25223191 -0.05 -0.059619642 21.141585
0.24722063 -0.05 -0.059326451 20.968207
0.24228234 -0.05 -0.059023398 20.801865
0.23741602 -0.05 -0.058710725 20.642088
0.23262065 -0.05 -0.058388641 20.489015
0.22789527 -0.05 -0.058057377 20.340971
0.22323888 -0.05 -0.057717142 20.19965
0.21865055 -0.05 -0.057368078 20.06406
0.21412932 -0.05 -0.057010416 19.934601
0.20967428 -0.05 -0.056644349 19.811473
0.2052845 -0.05 -0.056269977 19.693439
0.20095906 -0.05 -0.055887536 19.580994
0.19669711 -0.05 -0.05549721 19.474405
0.19249775 -0.05 -0.055099201 19.373179
0.18836011 -0.05 -0.054693683 19.278038
0.18428336 -0.05 -0.054280714 19.18724
0.18026664 -0.05 -0.053860515 19.101537
0.17630914 -0.05 -0.053433253 19.021556
0.17241004 -0.05 -0.052999059 18.945949
0.16856854 -0.05 -0.052558116 18.875857
0.16478385 -0.05 -0.052110557 18.810355
0.16105518 -0.05 -0.051656495 18.749087
0.1573818 -0.05 -0.051196036 18.691001
0.15376292 -0.05 -0.050729376 18.636934
0.15019781 -0.05 -0.050256609 18.587242
0.14668574 -0.05 -0.049777848 18.540998
0.14322599 -0.05 -0.04929322 18.49982
0.13981786 -0.05 -0.048802795 18.46209
0.13646064 -0.05 -0.048306708 18.428191
0.13315365 -0.05 -0.047805051 18.397508
0.12989621 -0.05 -0.047297971 18.370574
0.12668766 -0.05 -0.046785555 18.347392
0.12352734 -0.05 -0.046267806 18.325925
0.12041462 -0.05 -0.045744887 18.30682
0.11734884 -0.05 -0.045216896 18.29235
0.1143294 -0.05 -0.044683828 18.280861
0.1113557 -0.05 -0.044145736 18.271943
0.10842713 -0.05 -0.043602729 18.264729
0.10554309 -0.05 -0.043054822 18.259999
0.10270302 -0.05 -0.042502086 18.256118
0.099906324 -0.05 -0.041944655 18.256347
0.097152464 -0.05 -0.041382453 18.259669
0.094440897 -0.05 -0.040815514 18.265365
0.091771066 -0.05 -0.040243962 18.275412
0.089142473 -0.05 -0.039667694 18.286644
0.086554595 -0.05 -0.039086755 18.29528
0.084006919 -0.05 -0.038501192 18.305438
0.08149895 -0.05 -0.037911015 18.314866
0.079030199 -0.05 -0.037316245 18.328461
0.076600223 -0.05 -0.036716762 18.344253
0.074208564 -0.05 -0.03611254 18.36204
0.071854755 -0.05 -0.035503633 18.381195
0.06953835 -0.05 -0.034890044 18.402787
0.067258947 -0.05 -0.034271642 18.4249
0.065016137 -0.05 -0.033648373 18.446401
0.062809511 -0.05 -0.033020215 18.470297
0.060638695 -0.05 -0.032387063 18.495885
0.058503323 -0.05 -0.031748817 18.521068
0.056403036 -0.05 -0.031105398 18.54471
0.054337495 -0.05 -0.030456694 18.565829
0.052306355 -0.05 -0.029802656 18.586588
0.05030933 -0.05 -0.029143081 18.611442
0.048346135 -0.05 -0.028477809 18.635701
0.046416472 -0.05 -0.027806759 18.666058
0.044520095 -0.05 -0.02712974 18.697281
0.042656773 -0.05 -0.026446556 18.73124
0.040826327 -0.05 -0.025756921 18.763531
0.039028564 -0.05 -0.025060636 18.790454
0.037263294 -0.05 -0.024357541 18.815961
0.035530395 -0.05 -0.023647347 18.845382
0.033829778 -0.05 -0.02292974 18.872978
0.032161379 -0.05 -0.022204405 18.88989
0.030525161 -0.05 -0.021471024 18.896188
0.02892113 -0.05 -0.020729243 18.903717
0.02734936 -0.05 -0.019978633 18.924376
0.025809936 -0.05 -0.019218817 18.966145
0.024303028 -0.05 -0.018449315 19.003447
0.022828864 -0.05 -0.017669619 19.004238
0.021387726 -0.05 -0.01687923 18.951923
0.019980023 -0.05 -0.016077537 18.840123
0.018606183 -0.05 -0.015263984 18.674887
0.01726681 -0.05 -0.01443787 18.519013
0.015962593 -0.05 -0.013598463 18.422498
0.014694315 -0.05 -0.01274505 18.414181
0.013462951 -0.05 -0.011876821 18.489223
0.012269661 -0.05 -0.010992962 18.658612
0.011115797 -0.05 -0.010092629 18.928778
0.010002947 -0.05 -0.0091748866 19.347339
0.0089328986 -0.05 -0.0082387463 19.853099
0.0079077442 -0.05 -0.0072834295 20.303412
0.0069300029 -0.05 -0.0063081885 20.630854
0.006002444 -0.05 -0.0053120351 20.801532
0.0051281494 -0.05 -0.0042943512 20.763068
0.0043108554 -0.05 -0.0032551043 20.503396
0.0035544431 -0.05 -0.002194055 19.995762
0.0028629911 -0.05 -0.0011115236 19.245019
0.0022411893 -0.05 -8.994335e-06 18.163666
0.0016935576 -0.05 0.0011119009 16.729555
0.0012243472 -0.05 0.002248514 14.877473
0.00083734163 -0.05 0.0033966741 12.480981
0.00053546623 -0.05 0.0045518765 9.4429612
0.00032028835 -0.05 0.0057087585 6.3838542
0.00019168106 -0.05 0.0068612628 2.5459964
0.00014793814 -0.05 0.0080033799 6.9315827
0.99643918 -0.05 -0.026056163 44.434595
0.99019896 -0.05 -0.026738481 54.511367
0.98395798 -0.05 -0.027413782 54.963207
0.97771623 -0.05 -0.028082092 54.621526
0.97147377 -0.05 -0.028743519 54.458431
0.96523059 -0.05 -0.029398222 54.235367
0.95898671 -0.05 -0.030046184 54.01999
0.95274214 -0.05 -0.030687468 53.795394
0.94649691 -0.05 -0.031322231 53.568764
0.94025102 -0.05 -0.031950558 53.338653
0.93400449 -0.05 -0.032572454 53.104837
0.92775734 -0.05 -0.03318798 52.867268
0.92150955 -0.05 -0.033797212 52.625681
0.91526117 -0.05 -0.034400185 52.378875
0.9090122 -0.05 -0.034997053 52.127023
0.90276264 -0.05 -0.035587812 51.870936
0.89651252 -0.05 -0.036172494 51.611482
0.89026185 -0.05 -0.036751237 51.350515
0.88401063 -0.05 -0.037324053 51.090036
0.87775886 -0.05 -0.037890886 50.830495
0.87150657 -0.05 -0.038451876 50.572222
0.86525376 -0.05 -0.039007088 50.314885
0.85900043 -0.05 -0.039556497 50.057048
0.85274661 -0.05 -0.040100188 49.798119
0.8464923 -0.05 -0.040638225 49.536069
0.8402375 -0.05 -0.041170593 49.269698
0.83398222 -0.05 -0.041697257 48.997328
0.82772648 -0.05 -0.042218393 48.720648
0.82147028 -0.05 -0.042733961 48.441573
0.81521362 -0.05 -0.043243914 48.162386
0.8089565 -0.05 -0.043748333 47.885112
0.80269894 -0.05 -0.044247226 47.610174
0.79644096 -0.05 -0.044740627 47.337183
0.79018253 -0.05 -0.04522849 47.065198
0.78392368 -0.05 -0.045710902 46.792041
0.77766442 -0.05 -0.046187828 46.51472
0.77140473 -0.05 -0.046659237 46.229195
0.76514464 -0.05 -0.04712519 45.936699
0.75888414 -0.05 -0.047585671 45.640233
0.75262323 -0.05 -0.048040673 45.345348
0.74636194 -0.05 -0.048490167 45.054961
0.74010025 -0.05 -0.048934137 44.769551
0.73383816 -0.05 -0.04937257 44.487713
0.72757569 -0.05 -0.049805428 44.207147
0.72131285 -0.05 -0.050232747 43.923004
0.71504962 -0.05 -0.050654557 43.631176
0.70878602 -0.05 -0.051070681 43.327254
0.70252204 -0.05 -0.051481173 43.014731
0.6962577 -0.05 -0.051885996 42.702118
0.68999299 -0.05 -0.052285059 42.395553
0.68372791 -0.05 -0.052678417 42.095194
0.67746248 -0.05 -0.053065973 41.799397
0.67119669 -0.05 -0.053447736 41.506213
0.66493054 -0.05 -0.053823591 41.210295
0.65866403 -0.05 -0.054193437 40.901655
0.65239717 -0.05 -0.054557359 40.574042
0.64612998 -0.05 -0.054915272 40.228332
0.63986243 -0.05 -0.055267007 39.878513
0.63359453 -0.05 -0.055612534 39.534005
0.62732629 -0.05 -0.055951854 39.195036
0.62105772 -0.05 -0.05628483 38.8625
0.61478881 -0.05 -0.056611376 38.535387
0.60851956 -0.05 -0.05693149 38.206915
0.60224999 -0.05 -0.057245028 37.862817
0.59598009 -0.05 -0.057551918 37.486568
0.58970986 -0.05 -0.057852076 37.089614
0.5834393 -0.05 -0.058145409 36.693524
0.57716842 -0.05 -0.058431804 36.297357
0.57089724 -0.05 -0.058711116 35.900573
0.56462573 -0.05 -0.058983311 35.505736
0.55835391 -0.05 -0.059248267 35.114519
0.55208179 -0.05 -0.059505824 34.724411
0.54580936 -0.05 -0.05975591 34.334383
0.53953664 -0.05 -0.059998361 33.944942
0.53326362 -0.05 -0.06023304 33.554965
0.5269903 -0.05 -0.060459874 33.164733
0.52071671 -0.05 -0.060678693 32.772641
0.51444283 -0.05 -0.060889354 32.378343
0.50816868 -0.05 -0.06109169 31.982639
0.50189426 -0.05 -0.061285562 31.590529
0.49561959 -0.05 -0.061470849 31.20289
0.48934466 -0.05 -0.061647351 30.822469
0.48306949 -0.05 -0.061814865 30.450021
0.47679408 -0.05 -0.061973268 30.084607
0.47051844 -0.05 -0.062122422 29.729253
0.46424258 -0.05 -0.062262076 29.387257
0.45796652 -0.05 -0.062392017 29.059663
0.45169026 -0.05 -0.062512081 28.745929
0.44541381 -0.05 -0.062622086 28.441219
0.43913719 -0.05 -0.062721807 28.144644
0.43286041 -0.05 -0.062811002 27.854358
0.4265835 -0.05 -0.062889462 27.570786
0.42030645 -0.05 -0.062956989 27.29303
0.41402929 -0.05 -0.063013334 27.022059
0.40775205 -0.05 -0.063058219 26.756515
0.40147473 -0.05 -0.06309142 26.496869
0.39519735 -0.05 -0.063112654 26.241689
0.38891995 -0.05 -0.063121609 25.992214
0.38264254 -0.05 -0.063118073 25.747614
0.37636516 -0.05 -0.063101806 25.509179
0.37008781 -0.05 -0.06307241 25.274729
0.36381056 -0.05 -0.063029564 25.045595
0.3575334 -0.05 -0.062973029 24.821286
0.35125639 -0.05 -0.062902469 24.602439
0.34497956 -0.05 -0.062817528 24.387553
0.33870294 -0.05 -0.062717819 24.178276
0.33242658 -0.05 -0.062603016 23.973761
0.32615053 -0.05 -0.062472728 23.77483
0.31987482 -0.05 -0.062326531 23.579323
0.31359952 -0.05 -0.062164038 23.389066
0.30732467 -0.05 -0.061984836 23.210555
0.30105033 -0.05 -0.061788493 23.223529
0.29919041 -0.05 0.058351794 22.691479
0.29355605 -0.05 0.058531641 23.101155
0.28800234 -0.05 0.058694335 23.316159
0.28252817 -0.05 0.058840128 23.530339
0.27713244 -0.05 0.058969325 23.738858
0.27181405 -0.05 0.059082259 23.944183
0.26657193 -0.05 0.059179244 24.145104
0.26140503 -0.05 0.059260562 24.341998
0.2563123 -0.05 0.059326537 24.533465
0.25129271 -0.05 0.05937745 24.720691
0.24634526 -0.05 0.059413523 24.90337
0.24146894 -0.05 0.059435066 25.081251
0.23666278 -0.05 0.059442358 25.252531
0.23192581 -0.05 0.059435695 25.418105
0.22725706 -0.05 0.059415355 25.579863
0.22265559 -0.05 0.059381541 25.738221
0.21812048 -0.05 0.059334553 25.892676
0.21365082 -0.05 0.059274643 26.04406
0.2092457 -0.05 0.059201975 26.191459
0.20490423 -0.05 0.059116848 26.335674
0.20062555 -0.05 0.059019505 26.47662
0.19640879 -0.05 0.058910207 26.614642
0.19225308 -0.05 0.058789188 26.75005
0.18815761 -0.05 0.058656562 26.881262
0.18412155 -0.05 0.058512611 27.008454
0.18014407 -0.05 0.058357554 27.132354
0.17622438 -0.05 0.058191579 27.251847
0.17236169 -0.05 0.058014923 27.368239
0.16855522 -0.05 0.057827776 27.479829
0.16480422 -0.05 0.057630302 27.586725
0.16110791 -0.05 0.057422655 27.687824
0.15746556 -0.05 0.05720509 27.784424
0.15387643 -0.05 0.056977743 27.877024
0.15033981 -0.05 0.056740784 27.965461
0.14685498 -0.05 0.056494387 28.05127
0.14342125 -0.05 0.056238669 28.135115
0.14003794 -0.05 0.055973812 28.21853
0.13670435 -0.05 0.055699957 28.301963
0.13341981 -0.05 0.055417297 28.381964
0.13018368 -0.05 0.055125961 28.457726
0.12699532 -0.05 0.054826001 28.525727
0.12385408 -0.05 0.054517622 28.585472
0.12075931 -0.05 0.054200965 28.635768
0.11771045 -0.05 0.053876067 28.67656
0.11470686 -0.05 0.053543022 28.71043
0.11174796 -0.05 0.053201983 28.742149
0.10883316 -0.05 0.052853002 28.776617
0.10596189 -0.05 0.05249619 28.814749
0.10313357 -0.05 0.052131722 28.860179
0.10034765 -0.05 0.05175956 28.913496
0.09760361 -0.05 0.051379774 28.968875
0.094900888 -0.05 0.050992523 29.029089
0.092238984 -0.05 0.050597743 29.092616
0.089617378 -0.05 0.050195513 29.155989
0.087035564 -0.05 0.049785915 29.223834
0.084493046 -0.05 0.049368992 29.293205
0.081989341 -0.05 0.0489448 29.367825
0.079523996 -0.05 0.048513248 29.44441
0.077096554 -0.05 0.048074343 29.521682
0.07470655 -0.05 0.04762817 29.599943
0.072353541 -0.05 0.047174762 29.680168
0.070037119 -0.05 0.046714019 29.760239
0.067756871 -0.05 0.046245912 29.836873
0.065512385 -0.05 0.045770447 29.911714
0.063303284 -0.05 0.045287545 29.982956
0.061129195 -0.05 0.044797133 30.049379
0.058989752 -0.05 0.044299156 30.109702
0.056884612 -0.05 0.043793525 30.165333
0.054813426 -0.05 0.043280215 30.213915
0.052775896 -0.05 0.042759044 30.260994
0.050771727 -0.05 0.04222987 30.299044
0.048800615 -0.05 0.041692635 30.334468
0.0468623 -0.05 0.041147163 30.364441
0.044956541 -0.05 0.040593274 30.392758
0.043083139 -0.05 0.040030699 30.419004
0.041241886 -0.05 0.039459248 30.439208
0.039432584 -0.05 0.038878778 30.452087
0.037655091 -0.05 0.038289005 30.460064
0.035909294 -0.05 0.037689626 30.467068
0.034195111 -0.05 0.037080328 30.473222
0.032512483 -0.05 0.036460799 30.473339
0.03086139 -0.05 0.035830683 30.470837
0.029241877 -0.05 0.035189549 30.464039
0.027654004 -0.05 0.034537013 30.454609
0.026097904 -0.05 0.033872585 30.443873
0.024573774 -0.05 0.033195745 30.429463
0.023081862 -0.05 0.032505973 30.412567
0.021622528 -0.05 0.031802632 30.394023
0.020196166 -0.05 0.031085138 30.369844
0.01880333 -0.05 0.030352751 30.346603
0.017444656 -0.05 0.029604694 30.312749
0.016120875 -0.05 0.028840199 30.276015
0.014832909 -0.05 0.028058395 30.228064
0.013581855 -0.05 0.027258388 30.172648
0.012369005 -0.05 0.026439245 30.106511
0.01119588 -0.05 0.025599921 30.024128
0.010064194 -0.05 0.024739311 29.906201
0.0089759836 -0.05 0.023856492 29.74827
0.0079337091 -0.05 0.022950546 29.53322
0.006940066 -0.05 0.022020299 29.248028
0.0059980866 -0.05 0.021064921 28.879923
0.005111496 -0.05 0.020084125 28.404376
0.0042841499 -0.05 0.019077405 27.77382
0.0035201393 -0.05 0.018044803 26.967655
0.0028242447 -0.05 0.016987476 25.947968
0.0022010873 -0.05 0.015906745 24.671764
0.0016550897 -0.05 0.014804958 23.096338
0.0011903124 -0.05 0.013686018 21.195493
0.00080998255 -0.05 0.012554218 18.956261
0.0005160313 -0.05 0.011414802 16.369221
0.00030874712 -0.05 0.01027382 13.366062
0.00018683962 -0.05 0.0091373853 10.047266
0.99647001 -0.05 -0.025157339 4.3441382
0.99029122 -0.05 -0.024048992 0.6422707
0.98411118 -0.05 -0.022947595 0.66134149
0.97792992 -0.05 -0.02185312 0.14464098
0.97174745 -0.05 -0.020765462 0.51335787
0.96556381 -0.05 -0.019684464 0.36816365
0.95937902 -0.05 -0.018610142 0.45432072
0.95319308 -0.05 -0.017542436 0.4224951
0.94700602 -0.05 -0.016481189 0.44675847
0.94081788 -0.05 -0.015426318 0.4422596
0.93462865 -0.05 -0.01437782 0.45274656
0.92843835 -0.05 -0.013335634 0.45782521
0.92224702 -0.05 -0.012299685 0.46530784
0.91605464 -0.05 -0.011269937 0.47223003
0.90986126 -0.05 -0.010246241 0.48024282
0.90366688 -0.05 -0.0092285987 0.4879539
0.89747152 -0.05 -0.0082169803 0.49991015
0.89127521 -0.05 -0.00721125 0.50699443
0.88507793 -0.05 -0.0062113943 0.51805137
0.8788797 -0.05 -0.0052174699 0.52582678
0.87268055 -0.05 -0.0042293401 0.53559468
0.86648049 -0.05 -0.0032469376 0.5485816
0.86027952 -0.05 -0.0022702908 0.56653875
0.85407765 -0.05 -0.0012993138 0.58586579
0.84787491 -0.05 -0.00033394447 0.60807474
0.84167131 -0.05 0.00062580332 0.66197608
0.83546683 -0.05 0.0015798933 0.75620271
0.8292615 -0.05 0.0025284999 0.72609662
0.82305534 -0.05 0.003471583 0.7737218
0.81684833 -0.05 0.0044090962 0.75399138
0.81064049 -0.05 0.0053411186 0.76089227
0.80443183 -0.05 0.0062676596 0.74165264
0.79822236 -0.05 0.0071887505 0.71984615
0.79201209 -0.05 0.0081043461 0.68662169
0.78580102 -0.05 0.0090145325 0.62977661
0.77958915 -0.05 0.0099192746 0.53826303
0.77337648 -0.05 0.010818541 0.38401002
0.76716303 -0.05 0.011712392 0.21154459
0.7609488 -0.05 0.012600814 0.5140199
0.7547338 -0.05 0.013483795 0.6916073
0.74851803 -0.05 0.014361308 0.84827865
0.74230148 -0.05 0.015233338 1.0021234
0.73608416 -0.05 0.01609987 1.1570749
0.72986608 -0.05 0.016960868 1.3142824
0.72364724 -0.05 0.017816365 1.4740656
0.71742765 -0.05 0.018666392 1.6363391
0.71120728 -0.05 0.019510773 1.8023259
0.70498616 -0.05 0.020349558 1.9752198
0.69876429 -0.05 0.021182715 2.1571235
0.69254165 -0.05 0.02201015 2.3476022
0.68631826 -0.05 0.022831919 2.5479653
0.68009411 -0.05 0.023647924 2.7544126
0.67386921 -0.05 0.024458174 2.9668038
0.66764355 -0.05 0.025262554 3.18295
0.66141711 -0.05 0.026060964 3.4046477
0.65518993 -0.05 0.026853488 3.6323192
0.64896199 -0.05 0.02764004 3.8710087
0.64273328 -0.05 0.028420453 4.1225707
0.6365038 -0.05 0.029194696 4.3799217
0.63027356 -0.05 0.02996277 4.6421124
0.62404254 -0.05 0.030724539 4.906861
0.61781074 -0.05 0.031479916 5.1737489
0.61157817 -0.05 0.032228898 5.4466019
0.60534482 -0.05 0.032971343 5.7240855
0.59911069 -0.05 0.033707177 6.0041677
0.59287577 -0.05 0.034436318 6.287362
0.58664005 -0.05 0.035158673 6.5746853
0.58040354 -0.05 0.035874127 6.8667398
0.57416624 -0.05 0.036582536 7.1611256
0.56792813 -0.05 0.037283868 7.4581958
0.56168921 -0.05 0.037977999 7.7592968
0.55544948 -0.05 0.038664769 8.0643159
0.54920894 -0.05 0.039344105 8.3733448
0.54296757 -0.05 0.040015846 8.6860435
0.53672538 -0.05 0.040679853 9.000347
0.53048236 -0.05 0.041336054 9.3168585
0.52423851 -0.05 0.041984277 9.6375366
0.51799382 -0.05 0.042624382 9.9799104
0.51174828 -0.05 0.043256199 10.368865
0.5055019 -0.05 0.043879591 10.764996
0.49925467 -0.05 0.044494434 11.143837
0.49300659 -0.05 0.045100532 11.514424
0.48675765 -0.05 0.045697681 11.884225
0.48050784 -0.05 0.046285755 12.253409
0.47425718 -0.05 0.046864617 12.622017
0.46800565 -0.05 0.047434017 12.990895
0.46175324 -0.05 0.047993741 13.360871
0.45549997 -0.05 0.048543624 13.731169
0.44924581 -0.05 0.049083485 14.100217
0.44299078 -0.05 0.049613097 14.469147
0.43673488 -0.05 0.05013222 14.838871
0.43047809 -0.05 0.050640642 15.20933
0.42422042 -0.05 0.051138167 15.579306
0.41796189 -0.05 0.051624542 15.9484
0.41170247 -0.05 0.052099493 16.317447
0.40544218 -0.05 0.05256279 16.688153
0.39918102 -0.05 0.053014151 17.059409
0.39291899 -0.05 0.053453266 17.429312
0.3866561 -0.05 0.053879918 17.798411
0.38039235 -0.05 0.054293868 18.168917
0.37412775 -0.05 0.054694717 18.540182
0.36786231 -0.05 0.055082143 18.910897
0.36159604 -0.05 0.055455903 19.281301
0.35532895 -0.05 0.055815662 19.651848
0.34906105 -0.05 0.056161062 20.022563
0.34279236 -0.05 0.056491714 20.394844
0.33652289 -0.05 0.056807289 20.767741
0.33025266 -0.05 0.057107394 21.140743
0.3239817 -0.05 0.057391605 21.511842
0.31771001 -0.05 0.057659531 21.883831
0.31143763 -0.05 0.057910755 22.258018
0.30516459 -0.05 0.058144843 22.440017
