# p  FACE_DATA 448
# x y z  p
0.29663112 -0.05 -0.060416615 99571.651
0.29099423 -0.05 -0.060353581 99566.574
0.28543867 -0.05 -0.060276886 99561.851
0.27996331 -0.05 -0.060186732 99557.263
0.27456703 -0.05 -0.060083376 99552.781
0.26924871 -0.05 -0.059967104 99548.582
0.26400727 -0.05 -0.059838184 99544.463
0.25884166 -0.05 -0.05969685 99540.58
0.25375081 -0.05 -0.059543383 99536.642
0.2487337 -0.05 -0.05937802 99532.892
0.24378928 -0.05 -0.059200935 99529.261
0.23891657 -0.05 -0.059012401 99525.91
0.23411455 -0.05 -0.05881265 99522.734
0.22938226 -0.05 -0.058601937 99519.619
0.22471872 -0.05 -0.0583805 99516.503
0.22012299 -0.05 -0.0581485 99513.618
0.21559411 -0.05 -0.057906195 99510.765
0.21113118 -0.05 -0.0576538 99508.161
0.20673328 -0.05 -0.057391441 99505.752
0.20239951 -0.05 -0.057119374 99503.445
0.19812899 -0.05 -0.056837807 99501.308
0.19392084 -0.05 -0.056546963 99499.254
0.18977421 -0.05 -0.056247041 99497.424
0.18568826 -0.05 -0.055938117 99495.816
0.18166214 -0.05 -0.055620436 99494.067
0.17769503 -0.05 -0.055294184 99492.448
0.17378614 -0.05 -0.054959516 99490.924
0.16993464 -0.05 -0.05461663 99489.706
0.16613977 -0.05 -0.054265685 99488.549
0.16240075 -0.05 -0.053906811 99487.617
0.15871682 -0.05 -0.053540131 99486.814
0.15508722 -0.05 -0.053165864 99486.171
0.15151121 -0.05 -0.052784119 99485.865
0.14798809 -0.05 -0.052395033 99485.724
0.14451711 -0.05 -0.051998748 99485.828
0.14109758 -0.05 -0.051595352 99486.127
0.1377288 -0.05 -0.051184997 99486.553
0.13441011 -0.05 -0.050767794 99487.243
0.1311408 -0.05 -0.050343907 99487.941
0.12792023 -0.05 -0.049913439 99488.923
0.12474775 -0.05 -0.049476412 99490.129
0.1216227 -0.05 -0.049033002 99491.392
0.11854446 -0.05 -0.048583326 99492.88
0.11551241 -0.05 -0.048127393 99494.638
0.11252596 -0.05 -0.047665271 99496.598
0.1095845 -0.05 -0.047197087 99498.707
0.10668744 -0.05 -0.046722869 99501.25
0.10383421 -0.05 -0.046242702 99503.821
0.10102421 -0.05 -0.045756737 99506.509
0.098256912 -0.05 -0.045264911 99509.689
0.095531776 -0.05 -0.04476727 99512.934
0.092848245 -0.05 -0.044263954 99516.35
0.090205817 -0.05 -0.043754873 99520.34
0.087603972 -0.05 -0.043240085 99524.391
0.085042198 -0.05 -0.042719649 99528.835
0.08252 -0.05 -0.042193589 99533.222
0.080036892 -0.05 -0.041661939 99538.024
0.077592426 -0.05 -0.041124588 99543.378
0.075186144 -0.05 -0.040581522 99549.11
0.072817578 -0.05 -0.040032809 99554.985
0.070486285 -0.05 -0.039478461 99561.162
0.068191861 -0.05 -0.038918359 99567.904
0.065933894 -0.05 -0.038352459 99574.949
0.063711974 -0.05 -0.037780751 99582.382
0.061525726 -0.05 -0.037203135 99590.28
0.05937478 -0.05 -0.036619524 99598.659
0.057258774 -0.05 -0.03602985 99607.577
0.05517737 -0.05 -0.035434004 99617.059
0.053130218 -0.05 -0.03483195 99626.825
0.05111703 -0.05 -0.034223491 99637.539
0.049137516 -0.05 -0.033608474 99648.749
0.047191377 -0.05 -0.032986827 99660.609
0.045278358 -0.05 -0.032358365 99673.053
0.043398228 -0.05 -0.031722896 99686.322
0.041550799 -0.05 -0.031080142 99700.606
0.039735873 -0.05 -0.030429905 99715.758
0.037953255 -0.05 -0.029772034 99731.686
0.036202817 -0.05 -0.029106239 99748.802
0.034484461 -0.05 -0.028432213 99767.064
0.032798117 -0.05 -0.027749638 99786.648
0.031143737 -0.05 -0.027058201 99807.16
0.02952132 -0.05 -0.026357545 99829.391
0.027930929 -0.05 -0.025647243 99853.221
0.026372639 -0.05 -0.024926911 99878.663
0.024846606 -0.05 -0.024196069 99906.087
0.023353048 -0.05 -0.0234542 99935.521
0.021892232 -0.05 -0.022700801 99967.163
0.020464553 -0.05 -0.02193525 100001.38
0.019070422 -0.05 -0.021156978 100038.06
0.017710427 -0.05 -0.020365271 100078.05
0.016385238 -0.05 -0.01955938 100121.18
0.01509562 -0.05 -0.018738571 100167.96
0.013842526 -0.05 -0.017902011 100218.35
0.012627095 -0.05 -0.017048855 100273.24
0.011450658 -0.05 -0.016178225 100333.32
0.010314778 -0.05 -0.015289145 100398.86
0.0092212153 -0.05 -0.014380583 100469.03
0.0081720441 -0.05 -0.013451707 100545.11
0.0071697627 -0.05 -0.012501704 100626.94
0.0062171144 -0.05 -0.011529516 100714.82
0.0053171644 -0.05 -0.010534448 100808.53
0.0044736467 -0.05 -0.0095163709 100907.44
0.0036904352 -0.05 -0.0084749466 101010.24
0.0029716155 -0.05 -0.0074103911 101114.96
0.0023219135 -0.05 -0.006324069 101218.88
0.0017458895 -0.05 -0.0052174965 101318.55
0.0012478606 -0.05 -0.0040932122 101408.04
0.00083171553 -0.05 -0.0029552895 101483.1
0.00050049347 -0.05 -0.0018081568 101541.49
0.00025589795 -0.05 -0.00065713542 101576.26
9.7956487e-05 -0.05 0.00049171648 101584.8
2.5116563e-05 -0.05 0.0016323475 101567.62
0.9968608 -0.05 -0.0070218498 99988.738
0.99064 -0.05 -0.0078630024 100017.14
0.98441826 -0.05 -0.0086971591 99998.448
0.97819559 -0.05 -0.0095243467 100006.19
0.971972 -0.05 -0.010344672 100000.75
0.96574754 -0.05 -0.011158293 100001.1
0.95952221 -0.05 -0.011965194 99998.595
0.95329601 -0.05 -0.012765436 99997.247
0.94706899 -0.05 -0.013559177 99995.214
0.94084115 -0.05 -0.014346499 99993.431
0.9346125 -0.05 -0.01512741 99991.373
0.92838306 -0.05 -0.015901968 99989.405
0.92215284 -0.05 -0.01667025 99987.247
0.91592185 -0.05 -0.017432292 99985.184
0.90969012 -0.05 -0.018188245 99982.946
0.90345766 -0.05 -0.018938105 99980.778
0.89722447 -0.05 -0.019681906 99978.45
0.89099058 -0.05 -0.020419783 99976.174
0.88475599 -0.05 -0.02115175 99973.757
0.8785207 -0.05 -0.021877749 99971.378
0.87228474 -0.05 -0.022597919 99968.865
0.86604811 -0.05 -0.023312328 99966.416
0.85981082 -0.05 -0.024020949 99963.841
0.85357288 -0.05 -0.024723865 99961.306
0.84733432 -0.05 -0.025421142 99958.648
0.84109513 -0.05 -0.026112765 99956.025
0.83485531 -0.05 -0.026798697 99953.301
0.82861488 -0.05 -0.027479115 99950.583
0.82237385 -0.05 -0.028153978 99947.782
0.81613222 -0.05 -0.028823241 99945.035
0.80989 -0.05 -0.029486982 99942.183
0.80364718 -0.05 -0.030145211 99939.35
0.7974038 -0.05 -0.030797961 99936.428
0.79115985 -0.05 -0.031445185 99933.525
0.78491533 -0.05 -0.032086971 99930.541
0.77867026 -0.05 -0.032723284 99927.57
0.77242462 -0.05 -0.033354091 99924.524
0.76617844 -0.05 -0.033979454 99921.505
0.7599317 -0.05 -0.034599359 99918.41
0.75368444 -0.05 -0.035213796 99915.311
0.74743663 -0.05 -0.035822737 99912.143
0.74118829 -0.05 -0.036426166 99908.976
0.73493942 -0.05 -0.037024069 99905.752
0.72869002 -0.05 -0.03761641 99902.511
0.7224401 -0.05 -0.038203223 99899.202
0.71618966 -0.05 -0.038784538 99895.91
0.70993869 -0.05 -0.039360179 99892.565
0.70368722 -0.05 -0.039930198 99889.178
0.69743523 -0.05 -0.04049456 99885.759
0.69118272 -0.05 -0.041053173 99882.307
0.68492971 -0.05 -0.041606093 99878.805
0.67867619 -0.05 -0.042153222 99875.265
0.67242216 -0.05 -0.042694568 99871.661
0.66616762 -0.05 -0.043230018 99868.057
0.65991259 -0.05 -0.043759469 99864.397
0.65365704 -0.05 -0.044283008 99860.682
0.647401 -0.05 -0.044800548 99856.911
0.64114445 -0.05 -0.045311921 99853.106
0.6348874 -0.05 -0.045817097 99849.25
0.62862985 -0.05 -0.046316076 99845.339
0.6223718 -0.05 -0.046808722 99841.392
0.61611325 -0.05 -0.04729495 99837.367
0.6098542 -0.05 -0.047774756 99833.289
0.60359466 -0.05 -0.048247996 99829.18
0.59733462 -0.05 -0.048714599 99825.022
0.59107407 -0.05 -0.049174479 99820.824
0.58481302 -0.05 -0.049627547 99816.539
0.57855149 -0.05 -0.050073686 99812.199
0.57228945 -0.05 -0.050512751 99807.811
0.56602692 -0.05 -0.050944711 99803.354
0.5597639 -0.05 -0.051369444 99798.854
0.55350037 -0.05 -0.051786785 99794.278
0.54723636 -0.05 -0.052196667 99789.616
0.54097185 -0.05 -0.052598923 99784.918
0.53470684 -0.05 -0.052993418 99780.16
0.52844136 -0.05 -0.053380077 99775.335
0.52217538 -0.05 -0.053758732 99770.445
0.51590892 -0.05 -0.054129238 99765.424
0.50964196 -0.05 -0.054491429 99760.405
0.50337453 -0.05 -0.054845166 99755.299
0.49710662 -0.05 -0.055190325 99750.137
0.49083822 -0.05 -0.05552671 99744.827
0.48456935 -0.05 -0.055854117 99739.519
0.47830002 -0.05 -0.056172422 99734.233
0.47203022 -0.05 -0.056481486 99729.012
0.46575996 -0.05 -0.056781059 99723.674
0.45948925 -0.05 -0.057070927 99718.274
0.45321808 -0.05 -0.057350926 99712.809
0.44694648 -0.05 -0.057620875 99707.326
0.44067444 -0.05 -0.057880546 99701.749
0.43440198 -0.05 -0.0581297 99696.133
0.4281291 -0.05 -0.058368126 99690.486
0.42185582 -0.05 -0.058595626 99684.853
0.41558213 -0.05 -0.05881195 99679.118
0.40930806 -0.05 -0.05901682 99673.384
0.40303363 -0.05 -0.059210012 99667.567
0.39675884 -0.05 -0.059391241 99661.84
0.39048371 -0.05 -0.059560197 99656.086
0.38420825 -0.05 -0.059716666 99650.294
0.37793248 -0.05 -0.059860407 99644.432
0.37165644 -0.05 -0.059991022 99638.713
0.36538013 -0.05 -0.060108191 99632.928
0.35910357 -0.05 -0.060211672 99627.159
0.3528268 -0.05 -0.060301127 99621.35
0.34654985 -0.05 -0.060376203 99615.633
0.34027272 -0.05 -0.06043651 99609.963
0.33399547 -0.05 -0.060481721 99604.222
0.32771814 -0.05 -0.060511444 99598.541
0.32144076 -0.05 -0.060525255 99592.992
0.31516335 -0.05 -0.060522766 99587.491
0.30888597 -0.05 -0.06050356 99581.875
0.30260866 -0.05 -0.060467206 99575.888
0.29768712 -0.05 0.059586643 99386.539
0.29204999 -0.05 0.059622816 99380.22
0.28649394 -0.05 0.0596439 99374.109
0.28101784 -0.05 0.059650116 99368.074
0.27562056 -0.05 0.059641739 99362.131
0.27030103 -0.05 0.059619078 99356.296
0.26505813 -0.05 0.059582416 99350.571
0.25989084 -0.05 0.059532009 99344.986
0.25479809 -0.05 0.059468155 99339.422
0.24977883 -0.05 0.059391109 99334.027
0.24483206 -0.05 0.059301064 99328.783
0.23995679 -0.05 0.059198309 99323.63
0.23515201 -0.05 0.059083096 99318.579
0.23041673 -0.05 0.058955695 99313.567
0.22575002 -0.05 0.058816361 99308.69
0.22115091 -0.05 0.058665273 99303.954
0.21661847 -0.05 0.058502705 99299.233
0.2121518 -0.05 0.058328888 99294.675
0.20774995 -0.05 0.058143962 99290.265
0.20341207 -0.05 0.057948204 99285.926
0.19913726 -0.05 0.057741834 99281.735
0.19492465 -0.05 0.057525091 99277.556
0.19077338 -0.05 0.057298188 99273.539
0.18668261 -0.05 0.057061216 99269.689
0.18265153 -0.05 0.056814437 99265.847
0.1786793 -0.05 0.056558049 99262.192
0.17476512 -0.05 0.056292221 99258.599
0.17090819 -0.05 0.056017167 99255.137
0.16710772 -0.05 0.055733058 99251.737
0.16336296 -0.05 0.055440038 99248.517
0.15967316 -0.05 0.055138246 99245.411
0.15603753 -0.05 0.054827911 99242.382
0.15245536 -0.05 0.054509157 99239.551
0.14892594 -0.05 0.05418213 99236.737
0.14544852 -0.05 0.053846988 99234.057
0.14202243 -0.05 0.053503832 99231.489
0.13864695 -0.05 0.053152825 99229.093
0.13532142 -0.05 0.05279409 99226.832
0.13204517 -0.05 0.052427801 99224.58
0.12881751 -0.05 0.052054075 99222.525
0.12563783 -0.05 0.051672946 99220.698
0.12250547 -0.05 0.0512846 99218.871
0.11941979 -0.05 0.050889164 99217.184
0.11638018 -0.05 0.05048666 99215.64
0.11338607 -0.05 0.050077165 99214.258
0.11043682 -0.05 0.049660819 99212.935
0.10753187 -0.05 0.049237655 99211.911
0.10467062 -0.05 0.048807774 99210.928
0.10185251 -0.05 0.048371335 99210.116
0.099076984 -0.05 0.047928284 99209.602
0.096343514 -0.05 0.047478678 99209.115
0.093651541 -0.05 0.047022664 99208.69
0.091000564 -0.05 0.046560164 99208.58
0.088390062 -0.05 0.046091243 99208.533
0.085819525 -0.05 0.04561597 99208.846
0.083288461 -0.05 0.045134377 99209.219
0.080796381 -0.05 0.044646506 99209.894
0.078342837 -0.05 0.044152257 99210.826
0.07592737 -0.05 0.043651621 99211.965
0.073549516 -0.05 0.043144675 99213.167
0.071208829 -0.05 0.042631439 99214.622
0.068904903 -0.05 0.042111802 99216.466
0.066637327 -0.05 0.041585725 99218.631
0.06440569 -0.05 0.041053206 99221.048
0.062209615 -0.05 0.040514154 99223.691
0.060048731 -0.05 0.039968486 99226.537
0.057922676 -0.05 0.03941614 99229.825
0.05583111 -0.05 0.038857016 99233.622
0.05377368 -0.05 0.03829108 99237.844
0.051750096 -0.05 0.037718144 99242.723
0.049760065 -0.05 0.037138057 99247.728
0.047803287 -0.05 0.036550755 99253.018
0.045879505 -0.05 0.035956055 99258.789
0.043988484 -0.05 0.035353772 99265.419
0.042130029 -0.05 0.034743628 99273.051
0.040303941 -0.05 0.034125432 99281.225
0.038510022 -0.05 0.033499033 99289.809
0.036748138 -0.05 0.032864146 99299.2
0.035018187 -0.05 0.032220463 99309.701
0.033320092 -0.05 0.031567671 99321.597
0.0316538 -0.05 0.030905454 99334.674
0.030019305 -0.05 0.030233459 99348.524
0.028416661 -0.05 0.029551254 99362.98
0.026845935 -0.05 0.028858457 99379.132
0.025307276 -0.05 0.028154582 99397.848
0.023800894 -0.05 0.027439114 99418.715
0.022327047 -0.05 0.026711538 99441.217
0.020886116 -0.05 0.025971229 99465.162
0.019478505 -0.05 0.025217613 99492.134
0.018104788 -0.05 0.024449961 99522.831
0.016765623 -0.05 0.023667516 99555.807
0.015461758 -0.05 0.022869529 99591.504
0.014194138 -0.05 0.02205515 99629.954
0.012963881 -0.05 0.021223515 99672.341
0.011772304 -0.05 0.020373723 99722.343
0.010620954 -0.05 0.01950477 99780.056
0.0095115722 -0.05 0.018615594 99846.172
0.0084462169 -0.05 0.017705325 99923.11
0.0074273725 -0.05 0.016773107 100009.2
0.0064577631 -0.05 0.015817836 100101.84
0.0055404412 -0.05 0.014838758 100201.79
0.004679138 -0.05 0.013835683 100311.07
0.0038777207 -0.05 0.012808202 100429
0.0031402782 -0.05 0.011756462 100557.92
0.0024715596 -0.05 0.010681741 100694.56
0.0018761513 -0.05 0.0095854773 100836.52
0.0013584143 -0.05 0.0084701313 100979.42
0.0009223085 -0.05 0.0073397081 101118.34
0.00057095042 -0.05 0.0061985819 101248.45
0.00030613705 -0.05 0.0050520432 101362.49
0.00012800249 -0.05 0.0039061486 101454.5
3.5100961e-05 -0.05 0.002766976 101523.86
0.99686872 -0.05 -0.0061225322 100206.47
0.99066368 -0.05 -0.005172036 100132.13
0.98445758 -0.05 -0.004228518 100110.53
0.97825043 -0.05 -0.0032919515 100089.28
0.97204225 -0.05 -0.0023622306 100074
0.96583307 -0.05 -0.001439197 100059.51
0.9596229 -0.05 -0.000522868 100047.14
0.95341175 -0.05 0.00038681987 100035.45
0.94719965 -0.05 0.0012900211 100024.73
0.94098664 -0.05 0.0021868201 100014.45
0.93477269 -0.05 0.0030772216 100005.03
0.92855785 -0.05 0.0039612858 99995.855
0.92234211 -0.05 0.0048390888 99987.283
0.9161255 -0.05 0.0057106658 99978.98
0.90990804 -0.05 0.0065761675 99971.03
0.90368973 -0.05 0.0074355914 99963.373
0.8974706 -0.05 0.0082889689 99955.989
0.89125067 -0.05 0.0091364357 99948.675
0.88502992 -0.05 0.0099780055 99941.655
0.87880837 -0.05 0.010813622 99934.935
0.87258605 -0.05 0.011643421 99928.182
0.86636296 -0.05 0.012467472 99921.635
0.8601391 -0.05 0.013285746 99915.317
0.85391451 -0.05 0.01409833 99909.094
0.84768918 -0.05 0.014905285 99902.953
0.84146313 -0.05 0.015706599 99896.943
0.83523634 -0.05 0.016502234 99891.194
0.82900885 -0.05 0.017292365 99885.191
0.82278067 -0.05 0.018076955 99879.539
0.81655178 -0.05 0.018855954 99873.792
0.8103222 -0.05 0.019629443 99868.281
0.80409194 -0.05 0.020397431 99862.663
0.79786102 -0.05 0.021159951 99857.171
0.79162942 -0.05 0.021916957 99851.751
0.78539717 -0.05 0.022668535 99846.261
0.77916425 -0.05 0.02341465 99840.925
0.77293068 -0.05 0.02415527 99835.59
0.76669648 -0.05 0.024890457 99830.277
0.76046162 -0.05 0.025620197 99825.022
0.75422613 -0.05 0.026344478 99819.757
0.74799001 -0.05 0.027063274 99814.539
0.74175326 -0.05 0.027776568 99809.313
0.73551587 -0.05 0.028484347 99804.131
0.72927787 -0.05 0.029186574 99798.99
0.72303924 -0.05 0.029883282 99793.776
0.7168 -0.05 0.030574502 99788.481
0.71056014 -0.05 0.031260059 99783.469
0.70431966 -0.05 0.031940004 99778.148
0.69807856 -0.05 0.032614302 99773.045
0.69183686 -0.05 0.03328286 99767.829
0.68559454 -0.05 0.033945735 99762.701
0.67935161 -0.05 0.034602828 99757.563
0.67310808 -0.05 0.03525415 99752.284
0.66686395 -0.05 0.035899584 99747.112
0.66061919 -0.05 0.036539031 99741.955
0.65437383 -0.05 0.037172574 99736.604
0.64812786 -0.05 0.037800127 99731.309
0.64188129 -0.05 0.038421524 99726.052
0.63563409 -0.05 0.039036734 99720.764
0.62938629 -0.05 0.039645757 99715.421
0.62313788 -0.05 0.040248456 99710.212
0.61688886 -0.05 0.040844746 99704.895
0.61063922 -0.05 0.041434625 99699.558
0.60438897 -0.05 0.042017948 99694.228
0.59813811 -0.05 0.042594643 99688.788
0.59188663 -0.05 0.043164625 99683.35
0.58563452 -0.05 0.043727804 99677.812
0.5793818 -0.05 0.044284065 99672.302
0.57312846 -0.05 0.044833263 99666.824
0.56687451 -0.05 0.045375365 99661.314
0.56061993 -0.05 0.045910247 99655.846
0.55436472 -0.05 0.046437751 99650.328
0.54810889 -0.05 0.046957803 99644.7
0.54185243 -0.05 0.04747024 99639.06
0.53559534 -0.05 0.047974925 99633.332
0.52933762 -0.05 0.048471786 99627.534
0.52307928 -0.05 0.04896065 99621.712
0.51682031 -0.05 0.049441377 99615.832
0.5105607 -0.05 0.049913798 99610.076
0.50430046 -0.05 0.050377774 99604.253
0.49803959 -0.05 0.050833184 99598.363
0.49177809 -0.05 0.051279829 99592.402
0.48551595 -0.05 0.051717505 99586.45
0.47925318 -0.05 0.052146088 99580.321
0.4729898 -0.05 0.052565441 99574.107
0.46672579 -0.05 0.052975311 99567.889
0.46046114 -0.05 0.053375486 99561.696
0.45419588 -0.05 0.053765803 99555.419
0.44793 -0.05 0.054146078 99549.06
0.4416635 -0.05 0.054516084 99542.581
0.4353964 -0.05 0.054875583 99536.147
0.42912868 -0.05 0.055224362 99529.683
0.42286037 -0.05 0.055562224 99523.133
0.41659147 -0.05 0.055888919 99516.526
0.41032198 -0.05 0.056204169 99509.945
0.40405191 -0.05 0.056507749 99503.204
0.39778128 -0.05 0.056799374 99496.459
0.3915101 -0.05 0.057078734 99489.681
0.38523837 -0.05 0.057345615 99482.862
0.37896611 -0.05 0.057599774 99475.956
0.37269332 -0.05 0.057840816 99469.13
0.36642004 -0.05 0.058068417 99462.241
0.36014628 -0.05 0.058282337 99455.369
0.35387206 -0.05 0.058482238 99448.445
0.34759739 -0.05 0.058667764 99441.535
0.34132231 -0.05 0.058838527 99434.633
0.33504683 -0.05 0.058994198 99427.685
0.32877099 -0.05 0.059134386 99420.776
0.32249482 -0.05 0.059258665 99413.92
0.31621834 -0.05 0.059366645 99407.017
0.3099416 -0.05 0.059457913 99399.832
0.30366463 -0.05 0.059532032 99392.728
