# wallShearStress  FACE_DATA 448
# x y z  wallShearStress_x wallShearStress_y wallShearStress_z
0.29663112 -0.05 -0.060416615 -6.7376439 -4.6681279e-17 0.083080528
0.29099423 -0.05 -0.060353581 -6.9864114 -4.7188073e-17 0.10417178
0.28543867 -0.05 -0.060276886 -7.2572368 1.6509058e-17 0.12733773
0.27996331 -0.05 -0.060186732 -7.5263989 -3.6313202e-17 0.15222157
0.27456703 -0.05 -0.060083376 -7.7990088 3.1096313e-17 0.17875303
0.26924871 -0.05 -0.059967104 -8.073205 8.9928109e-17 0.20700433
0.26400727 -0.05 -0.059838184 -8.3474319 -1.8064062e-16 0.23688695
0.25884166 -0.05 -0.05969685 -8.6217031 -6.3353255e-17 0.26869601
0.25375081 -0.05 -0.059543383 -8.8968187 -2.1095054e-17 0.30222366
0.2487337 -0.05 -0.05937802 -9.1731858 -1.1166793e-17 0.33783635
0.24378928 -0.05 -0.059200935 -9.4493426 8.5416135e-17 0.37510343
0.23891657 -0.05 -0.059012401 -9.7246255 1.4004019e-16 0.41411887
0.23411455 -0.05 -0.05881265 -9.9968279 -1.3267079e-16 0.45464992
0.22938226 -0.05 -0.058601937 -10.262536 6.7649554e-17 0.49676863
0.22471872 -0.05 -0.0583805 -10.521975 -2.1541508e-16 0.54063827
0.22012299 -0.05 -0.0581485 -10.773434 8.7015984e-18 0.58613393
0.21559411 -0.05 -0.057906195 -11.015887 -3.8666053e-16 0.63298551
0.21113118 -0.05 -0.0576538 -11.253599 -4.4762801e-17 0.68187424
0.20673328 -0.05 -0.057391441 -11.489782 2.0720988e-16 0.73243433
0.20239951 -0.05 -0.057119374 -11.730302 -2.1922718e-16 0.78460689
0.19812899 -0.05 -0.056837807 -11.971135 4.9467642e-16 0.83813683
0.19392084 -0.05 -0.056546963 -12.206739 -2.3316495e-16 0.89267181
0.18977421 -0.05 -0.056247041 -12.426773 -3.0824562e-17 0.94841537
0.18568826 -0.05 -0.055938117 -12.622932 7.2331209e-17 1.0055379
0.18166214 -0.05 -0.055620436 -12.79638 -1.6747525e-16 1.0651651
0.17769503 -0.05 -0.055294184 -12.959858 1.027516e-16 1.128898
0.17378614 -0.05 -0.054959516 -13.139242 -7.9228347e-17 1.1973329
0.16993464 -0.05 -0.05461663 -13.346362 -3.598494e-16 1.2708601
0.16613977 -0.05 -0.054265685 -13.571302 2.7264055e-16 1.3482602
0.16240075 -0.05 -0.053906811 -13.813023 -1.1379814e-17 1.4299938
0.15871682 -0.05 -0.053540131 -14.07313 -2.7499912e-17 1.5155739
0.15508722 -0.05 -0.053165864 -14.360764 2.4837899e-16 1.6058461
0.15151121 -0.05 -0.052784119 -14.681796 4.5508687e-16 1.7020029
0.14798809 -0.05 -0.052395033 -15.030163 -6.3093381e-16 1.8038941
0.14451711 -0.05 -0.051998748 -15.393579 2.2440322e-16 1.9109274
0.14109758 -0.05 -0.051595352 -15.761004 -3.363024e-17 2.0219696
0.1377288 -0.05 -0.051184997 -16.126328 -1.6299494e-16 2.1366491
0.13441011 -0.05 -0.050767794 -16.485763 6.6329566e-16 2.2549021
0.1311408 -0.05 -0.050343907 -16.837313 8.0570101e-16 2.3762399
0.12792023 -0.05 -0.049913439 -17.179759 -2.7209026e-16 2.5009945
0.12474775 -0.05 -0.049476412 -17.510911 8.3776233e-16 2.6283177
0.1216227 -0.05 -0.049033002 -17.831253 -4.4141134e-16 2.7581509
0.11854446 -0.05 -0.048583326 -18.14021 2.8929781e-16 2.8921003
0.11551241 -0.05 -0.048127393 -18.436421 9.2376677e-17 3.0289563
0.11252596 -0.05 -0.047665271 -18.719565 -1.1051841e-15 3.1681399
0.1095845 -0.05 -0.047197087 -18.989952 -3.1752041e-16 3.3098998
0.10668744 -0.05 -0.046722869 -19.246237 -1.7661841e-16 3.4540836
0.10383421 -0.05 -0.046242702 -19.490435 -7.1793986e-17 3.6002733
0.10102421 -0.05 -0.045756737 -19.723617 -1.3430729e-16 3.7495734
0.098256912 -0.05 -0.045264911 -19.943819 -1.5394878e-16 3.9013753
0.095531776 -0.05 -0.04476727 -20.15155 -3.7602816e-17 4.0550539
0.092848245 -0.05 -0.044263954 -20.347899 -8.2749477e-17 4.2117213
0.090205817 -0.05 -0.043754873 -20.530482 -2.7149411e-16 4.3705025
0.087603972 -0.05 -0.043240085 -20.700633 -2.2242725e-16 4.5309612
0.085042198 -0.05 -0.042719649 -20.858606 1.197377e-16 4.693556
0.08252 -0.05 -0.042193589 -21.006044 2.3480964e-17 4.8581475
0.080036892 -0.05 -0.041661939 -21.142378 4.0787724e-16 5.0255627
0.077592426 -0.05 -0.041124588 -21.263978 -1.4050001e-16 5.1949834
0.075186144 -0.05 -0.040581522 -21.369446 4.9052802e-16 5.3653067
0.072817578 -0.05 -0.040032809 -21.460584 -4.5267139e-16 5.5373797
0.070486285 -0.05 -0.039478461 -21.536897 -1.543735e-16 5.7118316
0.068191861 -0.05 -0.038918359 -21.596392 1.8742176e-16 5.887647
0.065933894 -0.05 -0.038352459 -21.639321 -4.3121027e-16 6.0645086
0.063711974 -0.05 -0.037780751 -21.66588 -6.9796575e-16 6.2429362
0.061525726 -0.05 -0.037203135 -21.675185 -3.0871043e-16 6.4226978
0.05937478 -0.05 -0.036619524 -21.667134 -7.8791767e-16 6.6038802
0.057258774 -0.05 -0.03602985 -21.640259 -1.1862091e-16 6.7861699
0.05517737 -0.05 -0.035434004 -21.594992 -5.5977379e-16 6.9692999
0.053130218 -0.05 -0.03483195 -21.532246 -1.9613573e-16 7.1539923
0.05111703 -0.05 -0.034223491 -21.449306 -7.3689831e-16 7.3391971
0.049137516 -0.05 -0.033608474 -21.346441 1.972956e-16 7.5246238
0.047191377 -0.05 -0.032986827 -21.22387 -4.6471151e-16 7.7103249
0.045278358 -0.05 -0.032358365 -21.081211 5.749189e-17 7.8968428
0.043398228 -0.05 -0.031722896 -20.917272 6.8593835e-16 8.0834285
0.041550799 -0.05 -0.031080142 -20.730021 -9.0132378e-16 8.2688974
0.039735873 -0.05 -0.030429905 -20.520297 -2.5358181e-16 8.4529779
0.037953255 -0.05 -0.029772034 -20.288121 -6.8758703e-16 8.6361646
0.036202817 -0.05 -0.029106239 -20.031509 -6.1982019e-16 8.8176081
0.034484461 -0.05 -0.028432213 -19.74907 -1.1418867e-16 8.996313
0.032798117 -0.05 -0.027749638 -19.440884 8.006187e-16 9.1724119
0.031143737 -0.05 -0.027058201 -19.10957 1.9887147e-16 9.3423721
0.02952132 -0.05 -0.026357545 -18.749626 4.952068e-16 9.5089445
0.027930929 -0.05 -0.025647243 -18.359904 -4.3958754e-16 9.6683901
0.026372639 -0.05 -0.024926911 -17.942049 3.5471261e-16 9.8207331
0.024846606 -0.05 -0.024196069 -17.493495 -2.7637203e-16 9.9635644
0.023353048 -0.05 -0.0234542 -17.014253 -4.2552422e-16 10.095478
0.021892232 -0.05 -0.022700801 -16.501566 -7.138706e-16 10.214253
0.020464553 -0.05 -0.02193525 -15.954192 -9.4002598e-16 10.317121
0.019070422 -0.05 -0.021156978 -15.373473 -7.2886794e-16 10.403329
0.017710427 -0.05 -0.020365271 -14.756896 2.1377807e-16 10.467381
0.016385238 -0.05 -0.01955938 -14.104555 2.8679158e-17 10.506521
0.01509562 -0.05 -0.018738571 -13.416407 2.7057134e-16 10.516744
0.013842526 -0.05 -0.017902011 -12.693101 4.8434839e-17 10.495312
0.012627095 -0.05 -0.017048855 -11.934542 5.5449197e-16 10.43606
0.011450658 -0.05 -0.016178225 -11.13957 2.6579718e-17 10.330841
0.010314778 -0.05 -0.015289145 -10.30877 -3.0144028e-16 10.172164
0.0092212153 -0.05 -0.014380583 -9.4488635 6.1816092e-16 9.9592806
0.0081720441 -0.05 -0.013451707 -8.5664932 3.0894494e-16 9.6830153
0.0071697627 -0.05 -0.012501704 -7.6619995 -6.8507002e-18 9.3369617
0.0062171144 -0.05 -0.011529516 -6.742465 1.3222169e-16 8.9050471
0.0053171644 -0.05 -0.010534448 -5.8203677 -4.7237046e-16 8.377153
0.0044736467 -0.05 -0.0095163709 -4.9102182 2.529257e-16 7.7436118
0.0036904352 -0.05 -0.0084749466 -4.0289422 3.9064233e-16 7.0087698
0.0029716155 -0.05 -0.0074103911 -3.1910524 -1.2147212e-16 6.174449
0.0023219135 -0.05 -0.006324069 -2.3996169 -7.1820322e-18 5.2501202
0.0017458895 -0.05 -0.0052174965 -1.6996172 6.4759108e-16 4.258282
0.0012478606 -0.05 -0.0040932122 -1.119812 -2.2926307e-16 3.2204315
0.00083171553 -0.05 -0.0029552895 -0.67221908 -3.1271619e-16 2.1676743
0.00050049347 -0.05 -0.0018081568 -0.3896169 -2.8329182e-16 1.2140896
0.00025589795 -0.05 -0.00065713542 -0.22584395 -1.0197783e-16 0.5254032
9.7956487e-05 -0.05 0.00049171648 -0.15730313 1.3779474e-17 -0.067821624
2.5116563e-05 -0.05 0.0016323475 -0.13416876 1.437317e-18 -0.68038435
0.9968608 -0.05 -0.0070218498 0.14545022 3.4655121e-16 -0.14111608
0.99064 -0.05 -0.0078630024 -0.0081251139 -3.9808361e-16 -0.0003427787
0.98441826 -0.05 -0.0086971591 0.009890808 6.6492333e-16 0.00095852789
0.97819559 -0.05 -0.0095243467 -0.0021296166 -4.8906992e-16 -0.00022959201
0.971972 -0.05 -0.010344672 0.0047946009 -5.6676595e-17 0.00042249016
0.96574754 -0.05 -0.011158293 0.0020692432 -3.126415e-16 0.00011785013
0.95952221 -0.05 -0.011965194 0.0037439584 -9.6733916e-16 0.00033213203
0.95329601 -0.05 -0.012765436 0.0032657044 2.4269666e-16 0.00024328813
0.94706899 -0.05 -0.013559177 0.003734746 5.7200269e-16 0.00030752953
0.94084115 -0.05 -0.014346499 0.0037806196 -4.9291714e-16 0.00029169701
0.9346125 -0.05 -0.01512741 0.0040143697 -3.4496819e-16 0.00032010055
0.92838306 -0.05 -0.015901968 0.0041545972 -3.9609469e-17 0.00031455276
0.92215284 -0.05 -0.01667025 0.0043092867 3.6476722e-16 0.00033904337
0.91592185 -0.05 -0.017432292 0.0044190029 -2.4181224e-16 0.00035279208
0.90969012 -0.05 -0.018188245 0.0045973369 -1.5777582e-16 0.00037798873
0.90345766 -0.05 -0.018938105 0.0047560635 -4.974678e-16 0.00039394845
0.89722447 -0.05 -0.019681906 0.0049753348 8.8715816e-16 0.00038405721
0.89099058 -0.05 -0.020419783 0.0050900086 -9.0241917e-16 0.00038114046
0.88475599 -0.05 -0.02115175 0.0052883514 6.1071541e-16 0.00038856792
0.8785207 -0.05 -0.021877749 0.00541106 -1.7006796e-16 0.00039382908
0.87228474 -0.05 -0.022597919 0.0055705829 -6.6887287e-17 0.00040225439
0.86604811 -0.05 -0.023312328 0.0056734139 -4.0249648e-16 0.00041058928
0.85981082 -0.05 -0.024020949 0.0059034811 1.088926e-15 0.00041253713
0.85357288 -0.05 -0.024723865 0.0063029773 -1.8662159e-16 0.00039075962
0.84733432 -0.05 -0.025421142 0.0068448102 -3.0382571e-16 0.00035411467
0.84109513 -0.05 -0.026112765 0.0093606961 -6.38745e-16 0.00041399479
0.83485531 -0.05 -0.026798697 0.011494384 1.629562e-16 0.00058507579
0.82861488 -0.05 -0.027479115 0.010680723 -2.7384991e-16 0.00071719023
0.82237385 -0.05 -0.028153978 0.011333405 5.9548769e-16 0.00087520182
0.81613222 -0.05 -0.028823241 0.0098007805 -4.0462491e-16 0.00069926591
0.80989 -0.05 -0.029486982 0.010827115 1.3782901e-16 0.00078907008
0.80364718 -0.05 -0.030145211 0.0096639833 -5.5328063e-16 0.00068819051
0.7974038 -0.05 -0.030797961 0.0097932814 -5.5895622e-16 0.00065433193
0.79115985 -0.05 -0.031445185 0.0093010973 5.8221622e-16 0.00060502699
0.78491533 -0.05 -0.032086971 0.0084446891 8.6483744e-16 0.00051583406
0.77867026 -0.05 -0.032723284 0.0072014826 -6.9775237e-16 0.00037231539
0.77242462 -0.05 -0.033354091 0.0055004052 -1.182568e-16 0.00018483313
0.76617844 -0.05 -0.033979454 0.0033772246 -5.8326742e-16 -2.3399772e-05
0.7599317 -0.05 -0.034599359 0.0008514117 4.9228616e-17 -0.00026862956
0.75368444 -0.05 -0.035213796 -0.0020875926 5.0529443e-16 -0.00050006851
0.74743663 -0.05 -0.035822737 -0.0044831033 1.8785468e-16 -0.00073007517
0.74118829 -0.05 -0.036426166 -0.0070904887 2.8990531e-16 -0.00098170882
0.73493942 -0.05 -0.037024069 -0.010055627 -1.9611581e-16 -0.0012584587
0.72869002 -0.05 -0.03761641 -0.013402842 -1.7009132e-16 -0.0015688369
0.7224401 -0.05 -0.038203223 -0.017247795 6.8957066e-17 -0.0019103839
0.71618966 -0.05 -0.038784538 -0.021557913 1.7128459e-16 -0.0022821984
0.70993869 -0.05 -0.039360179 -0.026290808 -2.3746727e-16 -0.0026931284
0.70368722 -0.05 -0.039930198 -0.031580927 3.3791482e-16 -0.0031372647
0.69743523 -0.05 -0.04049456 -0.037517653 -2.3455864e-16 -0.0036288664
0.69118272 -0.05 -0.041053173 -0.044104626 2.0915938e-16 -0.0041541085
0.68492971 -0.05 -0.041606093 -0.051559355 8.1995159e-17 -0.0047425153
0.67867619 -0.05 -0.042153222 -0.059905084 -4.1046311e-16 -0.0053874712
0.67242216 -0.05 -0.042694568 -0.069291504 2.7176539e-16 -0.0060944836
0.66616762 -0.05 -0.043230018 -0.079646851 -2.7200758e-16 -0.0068629651
0.65991259 -0.05 -0.043759469 -0.09089536 -2.7436844e-16 -0.0076894317
0.65365704 -0.05 -0.044283008 -0.1032114 -7.1211731e-17 -0.0085756483
0.647401 -0.05 -0.044800548 -0.1166973 1.4157948e-16 -0.0095252333
0.64114445 -0.05 -0.045311921 -0.13131922 -5.4830522e-17 -0.010534432
0.6348874 -0.05 -0.045817097 -0.14708595 -2.7366246e-16 -0.011604352
0.62862985 -0.05 -0.046316076 -0.16410469 6.0192753e-17 -0.012735011
0.6223718 -0.05 -0.046808722 -0.1823834 -1.4236635e-16 -0.013923753
0.61611325 -0.05 -0.04729495 -0.20197894 1.4669205e-16 -0.015166329
0.6098542 -0.05 -0.047774756 -0.22314537 -1.8486956e-16 -0.016499895
0.60359466 -0.05 -0.048247996 -0.2469755 3.6790005e-16 -0.017953036
0.59733462 -0.05 -0.048714599 -0.27323506 -4.4206266e-17 -0.019507314
0.59107407 -0.05 -0.049174479 -0.30125279 1.3955273e-17 -0.021153669
0.58481302 -0.05 -0.049627547 -0.33112467 -1.6393492e-16 -0.022856503
0.57855149 -0.05 -0.050073686 -0.36310352 -1.2096012e-16 -0.024628921
0.57228945 -0.05 -0.050512751 -0.39707294 9.0531126e-17 -0.026462078
0.56602692 -0.05 -0.050944711 -0.43322079 -3.2255793e-16 -0.028364284
0.5597639 -0.05 -0.051369444 -0.47155201 1.8596692e-16 -0.030309671
0.55350037 -0.05 -0.051786785 -0.51222784 -2.8610318e-16 -0.032307508
0.54723636 -0.05 -0.052196667 -0.55549956 4.1655535e-17 -0.034350741
0.54097185 -0.05 -0.052598923 -0.60150201 8.163702e-17 -0.036453975
0.53470684 -0.05 -0.052993418 -0.65002546 -1.9860192e-16 -0.03858738
0.52844136 -0.05 -0.053380077 -0.70145221 1.7003259e-17 -0.040757522
0.52217538 -0.05 -0.053758732 -0.75586843 -2.4691021e-16 -0.042950658
0.51590892 -0.05 -0.054129238 -0.81392543 4.706007e-17 -0.045199129
0.50964196 -0.05 -0.054491429 -0.87536996 -1.4454278e-16 -0.047450131
0.50337453 -0.05 -0.054845166 -0.94014075 -1.6103526e-16 -0.04970954
0.49710662 -0.05 -0.055190325 -1.0084898 -1.306584e-16 -0.051946084
0.49083822 -0.05 -0.05552671 -1.0808781 -2.6745805e-16 -0.054161727
0.48456935 -0.05 -0.055854117 -1.1581762 8.6046305e-17 -0.056442411
0.47830002 -0.05 -0.056172422 -1.2447633 6.0688185e-17 -0.059194933
0.47203022 -0.05 -0.056481486 -1.3465947 -2.2731978e-16 -0.062321831
0.46575996 -0.05 -0.056781059 -1.4554341 2.8211479e-16 -0.065085527
0.45948925 -0.05 -0.057070927 -1.5675984 6.5033099e-17 -0.067553479
0.45321808 -0.05 -0.057350926 -1.684062 6.7048108e-17 -0.069870021
0.44694648 -0.05 -0.057620875 -1.8054112 -8.1838497e-17 -0.071619556
0.44067444 -0.05 -0.057880546 -1.9321229 -1.7541145e-16 -0.072755842
0.43440198 -0.05 -0.0581297 -2.0643527 6.4529802e-17 -0.073944938
0.4281291 -0.05 -0.058368126 -2.2028841 -9.2194342e-18 -0.075224741
0.42185582 -0.05 -0.058595626 -2.3475214 -2.422731e-16 -0.076149779
0.41558213 -0.05 -0.05881195 -2.4986914 -9.3387774e-17 -0.076686666
0.40930806 -0.05 -0.05901682 -2.6562775 -1.118543e-17 -0.076709943
0.40303363 -0.05 -0.059210012 -2.8209012 -9.6338843e-17 -0.076252916
0.39675884 -0.05 -0.059391241 -2.9922086 1.9378991e-16 -0.075200846
0.39048371 -0.05 -0.059560197 -3.1700306 6.6319027e-17 -0.073543089
0.38420825 -0.05 -0.059716666 -3.3548676 4.4300844e-17 -0.071170374
0.37793248 -0.05 -0.059860407 -3.5474753 7.2455768e-17 -0.068026791
0.37165644 -0.05 -0.059991022 -3.7471822 -6.6806989e-17 -0.063994315
0.36538013 -0.05 -0.060108191 -3.9537445 -2.5439943e-17 -0.059115637
0.35910357 -0.05 -0.060211672 -4.1678122 -1.1042479e-16 -0.053158323
0.3528268 -0.05 -0.060301127 -4.3898183 -4.9645567e-17 -0.046112101
0.34654985 -0.05 -0.060376203 -4.6195428 -2.1188535e-17 -0.037993334
0.34027272 -0.05 -0.06043651 -4.8565272 6.6551026e-17 -0.029057315
0.33399547 -0.05 -0.060481721 -5.1007182 2.3177028e-17 -0.017551027
0.32771814 -0.05 -0.060511444 -5.3526305 1.7266559e-18 -0.0049929171
0.32144076 -0.05 -0.060525255 -5.6119196 -1.7305566e-19 0.0093138074
0.31516335 -0.05 -0.060522766 -5.8778185 -1.0605192e-17 0.025754868
0.30888597 -0.05 -0.06050356 -6.1520521 -1.944071e-18 0.043758945
0.30260866 -0.05 -0.060467206 -6.4493264 -7.1147366e-19 0.063031486
0.29768712 -0.05 0.059586643 -7.10869 -1.7598256e-17 0.057804034
0.29204999 -0.05 0.059622816 -6.9677817 -2.6191445e-17 0.037162752
0.28649394 -0.05 0.0596439 -6.8257344 -1.1697218e-17 0.018020816
0.28101784 -0.05 0.059650116 -6.6902027 -2.2058283e-18 -0.00048654237
0.27562056 -0.05 0.059641739 -6.5617312 1.5426283e-18 -0.018788441
0.27030103 -0.05 0.059619078 -6.4401231 -2.1865479e-17 -0.036288271
0.26505813 -0.05 0.059582416 -6.3252696 -1.3302077e-17 -0.052022435
0.25989084 -0.05 0.059532009 -6.2169907 -1.0848285e-16 -0.067770794
0.25479809 -0.05 0.059468155 -6.1153821 4.4846025e-17 -0.083181481
0.24977883 -0.05 0.059391109 -6.0201665 1.0306809e-16 -0.098867017
0.24483206 -0.05 0.059301064 -5.9300201 -1.3812778e-17 -0.1142305
0.23995679 -0.05 0.059198309 -5.8446057 -6.5218653e-17 -0.12929312
0.23515201 -0.05 0.059083096 -5.7626979 5.6793648e-17 -0.14410807
0.23041673 -0.05 0.058955695 -5.684071 -8.5314108e-17 -0.15878241
0.22575002 -0.05 0.058816361 -5.609375 -9.1088328e-17 -0.1733896
0.22115091 -0.05 0.058665273 -5.5381383 6.5984897e-17 -0.18784884
0.21661847 -0.05 0.058502705 -5.4706107 2.2365739e-16 -0.2021337
0.2121518 -0.05 0.058328888 -5.406909 4.8355439e-17 -0.21646676
0.20774995 -0.05 0.058143962 -5.3461219 6.8213535e-17 -0.23066016
0.20341207 -0.05 0.057948204 -5.2886244 -4.2325973e-17 -0.24476806
0.19913726 -0.05 0.057741834 -5.2344791 -6.3996722e-17 -0.25887628
0.19492465 -0.05 0.057525091 -5.1836378 -7.1524265e-17 -0.27296523
0.19077338 -0.05 0.057298188 -5.1362688 1.6654684e-16 -0.28723375
0.18668261 -0.05 0.057061216 -5.0914681 -5.8905797e-17 -0.30150496
0.18265153 -0.05 0.056814437 -5.0496462 2.6016539e-16 -0.31579607
0.1786793 -0.05 0.056558049 -5.011061 -1.1975843e-16 -0.33030967
0.17476512 -0.05 0.056292221 -4.9748639 -7.5961347e-17 -0.34482711
0.17090819 -0.05 0.056017167 -4.9416004 2.0094641e-16 -0.35957084
0.16710772 -0.05 0.055733058 -4.9108491 -1.131443e-16 -0.37449152
0.16336296 -0.05 0.055440038 -4.8826323 -3.7686153e-16 -0.38968971
0.15967316 -0.05 0.055138246 -4.8564354 -1.479523e-16 -0.40498776
0.15603753 -0.05 0.054827911 -4.8328055 -1.0465789e-16 -0.42056827
0.15245536 -0.05 0.054509157 -4.8114746 -3.4822969e-16 -0.43644867
0.14892594 -0.05 0.05418213 -4.792349 7.3766373e-17 -0.45256384
0.14544852 -0.05 0.053846988 -4.7760125 4.3249801e-16 -0.46918305
0.14202243 -0.05 0.053503832 -4.7618431 2.4535261e-16 -0.48613583
0.13864695 -0.05 0.053152825 -4.7497647 -2.5150456e-16 -0.50343141
0.13532142 -0.05 0.05279409 -4.7396279 6.0985625e-16 -0.52105345
0.13204517 -0.05 0.052427801 -4.7317583 -1.5653524e-16 -0.53912263
0.12881751 -0.05 0.052054075 -4.7261312 1.3405453e-17 -0.55785378
0.12563783 -0.05 0.051672946 -4.7214565 6.5632913e-16 -0.57681757
0.12250547 -0.05 0.0512846 -4.7186349 -1.8457243e-16 -0.59619246
0.11941979 -0.05 0.050889164 -4.7184983 -3.159332e-16 -0.61639839
0.11638018 -0.05 0.05048666 -4.7201156 -8.6027675e-17 -0.63720564
0.11338607 -0.05 0.050077165 -4.7234294 5.2628413e-16 -0.65857831
0.11043682 -0.05 0.049660819 -4.7287696 -3.5767705e-16 -0.6807298
0.10753187 -0.05 0.049237655 -4.7360312 -6.7534071e-16 -0.70367468
0.10467062 -0.05 0.048807774 -4.7446693 -6.3083976e-16 -0.72711143
0.10185251 -0.05 0.048371335 -4.7556859 -7.3868146e-17 -0.75160858
0.099076984 -0.05 0.047928284 -4.7675561 -4.669537e-16 -0.77675929
0.096343514 -0.05 0.047478678 -4.7802058 1.8973296e-16 -0.80247454
0.093651541 -0.05 0.047022664 -4.7954328 3.5326501e-16 -0.82958644
0.091000564 -0.05 0.046560164 -4.8124146 -6.6048427e-16 -0.85773605
0.088390062 -0.05 0.046091243 -4.8304283 -3.8906742e-16 -0.88665745
0.085819525 -0.05 0.04561597 -4.8502308 3.1188699e-16 -0.91674023
0.083288461 -0.05 0.045134377 -4.8707496 -6.6066414e-16 -0.94772306
0.080796381 -0.05 0.044646506 -4.8935808 -2.1206304e-16 -0.98034815
0.078342837 -0.05 0.044152257 -4.9173877 4.4754507e-17 -1.0140969
0.07592737 -0.05 0.043651621 -4.9428475 -6.110207e-16 -1.049059
0.073549516 -0.05 0.043144675 -4.9703926 2.7671501e-16 -1.085554
0.071208829 -0.05 0.042631439 -4.9996546 8.1059549e-16 -1.1238195
0.068904903 -0.05 0.042111802 -5.0285607 2.7696334e-17 -1.1632227
0.066637327 -0.05 0.041585725 -5.0566794 4.8742802e-16 -1.2035952
0.06440569 -0.05 0.041053206 -5.0855811 -1.6249867e-16 -1.245697
0.062209615 -0.05 0.040514154 -5.1160665 -1.6551466e-17 -1.289979
0.060048731 -0.05 0.039968486 -5.1490127 -2.1665631e-16 -1.3368533
0.057922676 -0.05 0.03941614 -5.1842411 1.5292298e-16 -1.3861517
0.05583111 -0.05 0.038857016 -5.2204321 3.3939476e-16 -1.4373579
0.05377368 -0.05 0.03829108 -5.2568644 2.4201483e-16 -1.4906053
0.051750096 -0.05 0.037718144 -5.2931283 -8.9308283e-18 -1.5457455
0.049760065 -0.05 0.037138057 -5.328236 -2.8688936e-16 -1.6028001
0.047803287 -0.05 0.036550755 -5.3655547 3.8779138e-16 -1.6638162
0.045879505 -0.05 0.035956055 -5.4035208 -7.1392142e-16 -1.7281645
0.043988484 -0.05 0.035353772 -5.4405026 -1.516326e-16 -1.7953947
0.042130029 -0.05 0.034743628 -5.4750408 -1.2691096e-16 -1.864451
0.040303941 -0.05 0.034125432 -5.5086467 -6.8212642e-16 -1.9364882
0.038510022 -0.05 0.033499033 -5.5449999 -2.2638016e-16 -2.0144584
0.036748138 -0.05 0.032864146 -5.5858945 -1.457229e-16 -2.0989052
0.035018187 -0.05 0.032220463 -5.6273114 1.033076e-16 -2.1880417
0.033320092 -0.05 0.031567671 -5.6664981 6.9424234e-17 -2.2803822
0.0316538 -0.05 0.030905454 -5.699911 2.7579294e-16 -2.3749852
0.030019305 -0.05 0.030233459 -5.7277685 1.6699795e-16 -2.4743777
0.028416661 -0.05 0.029551254 -5.7519284 2.9389116e-16 -2.58168
0.026845935 -0.05 0.028858457 -5.7735297 -8.9147137e-17 -2.6950853
0.025307276 -0.05 0.028154582 -5.7820448 -5.5720366e-16 -2.8082317
0.023800894 -0.05 0.027439114 -5.7788979 2.5253444e-16 -2.9216928
0.022327047 -0.05 0.026711538 -5.7754933 3.3495625e-16 -3.041752
0.020886116 -0.05 0.025971229 -5.7762424 -2.2644986e-16 -3.1728034
0.019478505 -0.05 0.025217613 -5.7639728 7.8858741e-16 -3.3058106
0.018104788 -0.05 0.024449961 -5.7045988 1.4901176e-16 -3.4231796
0.016765623 -0.05 0.023667516 -5.5714257 4.9915604e-16 -3.5183902
0.015461758 -0.05 0.022869529 -5.3817738 1.0155701e-16 -3.6042465
0.014194138 -0.05 0.02205515 -5.1598588 1.7568312e-16 -3.7080204
0.012963881 -0.05 0.021223515 -4.9513485 6.9724216e-16 -3.8748069
0.011772304 -0.05 0.020373723 -4.7931812 3.1908774e-16 -4.1420753
0.010620954 -0.05 0.01950477 -4.658906 1.8462345e-16 -4.520126
0.0095115722 -0.05 0.018615594 -4.5638032 3.9878712e-16 -5.0069838
0.0084462169 -0.05 0.017705325 -4.5387896 -1.5130849e-16 -5.5595816
0.0074273725 -0.05 0.016773107 -4.6227341 1.6905538e-16 -6.1820479
0.0064577631 -0.05 0.015817836 -4.7022904 -3.9953037e-16 -6.7940604
0.0055404412 -0.05 0.014838758 -4.687317 4.1975446e-17 -7.2973037
0.004679138 -0.05 0.013835683 -4.5158657 3.8706136e-17 -7.6452829
0.0038777207 -0.05 0.012808202 -4.1946264 2.6302198e-16 -7.8151021
0.0031402782 -0.05 0.011756462 -3.7348292 2.7333095e-16 -7.7820702
0.0024715596 -0.05 0.010681741 -3.1806117 -1.7390355e-16 -7.5149211
0.0018761513 -0.05 0.0095854773 -2.5728835 3.9537364e-16 -7.045897
0.0013584143 -0.05 0.0084701313 -1.96161 -8.1557101e-17 -6.3748076
0.0009223085 -0.05 0.0073397081 -1.3814288 -1.1797444e-16 -5.5195361
0.00057095042 -0.05 0.0061985819 -0.88183862 -3.3757964e-17 -4.5388755
0.00030613705 -0.05 0.0050520432 -0.53440949 1.0252765e-16 -3.4818574
0.00012800249 -0.05 0.0039061486 -0.30829343 1.0589381e-16 -2.3958309
3.5100961e-05 -0.05 0.002766976 -0.18466937 4.0026235e-18 -1.3817306
0.99686872 -0.05 -0.0061225322 -62.872597 -1.2783861e-15 9.2653841
0.99066368 -0.05 -0.005172036 -58.153652 -8.319594e-16 8.8436584
0.98445758 -0.05 -0.004228518 -58.102934 -3.5813757e-16 8.7800673
0.97825043 -0.05 -0.0032919515 -57.671675 -3.3793886e-16 8.6521141
0.97204225 -0.05 -0.0023622306 -57.289838 8.1899801e-16 8.530574
0.96583307 -0.05 -0.001439197 -56.8601 -5.9785071e-16 8.404694
0.9596229 -0.05 -0.000522868 -56.42281 7.8526782e-16 8.2780999
0.95341175 -0.05 0.00038681987 -55.966109 1.386833e-15 8.151794
0.94719965 -0.05 0.0012900211 -55.501572 -1.0036174e-15 8.0255978
0.94098664 -0.05 0.0021868201 -55.025993 1.6242205e-15 7.8997104
0.93477269 -0.05 0.0030772216 -54.541876 2.2129854e-16 7.7733596
0.92855785 -0.05 0.0039612858 -54.047285 -5.2651265e-16 7.6479793
0.92234211 -0.05 0.0048390888 -53.545636 1.6033692e-16 7.5224677
0.9161255 -0.05 0.0057106658 -53.036484 7.7496632e-16 7.3981269
0.90990804 -0.05 0.0065761675 -52.523423 4.1096802e-16 7.2746165
0.90368973 -0.05 0.0074355914 -52.004774 -8.5881899e-17 7.151473
0.8974706 -0.05 0.0082889689 -51.485102 1.1873714e-15 7.0300465
0.89125067 -0.05 0.0091364357 -50.964384 1.2542044e-15 6.9099637
0.88502992 -0.05 0.0099780055 -50.443464 9.8492665e-16 6.7906141
0.87880837 -0.05 0.010813622 -49.920157 4.8238607e-16 6.672452
0.87258605 -0.05 0.011643421 -49.397236 -9.7027361e-17 6.5564368
0.86636296 -0.05 0.012467472 -48.873378 -8.8182914e-16 6.4409443
0.8601391 -0.05 0.013285746 -48.347856 1.8052927e-16 6.3268131
0.85391451 -0.05 0.01409833 -47.818178 4.0335129e-16 6.2136596
0.84768918 -0.05 0.014905285 -47.286522 9.8554009e-16 6.1014183
0.84146313 -0.05 0.015706599 -46.750829 4.4279326e-16 5.9895234
0.83523634 -0.05 0.016502234 -46.211107 -1.6297186e-15 5.8785364
0.82900885 -0.05 0.017292365 -45.668355 -1.9942159e-15 5.7689179
0.82278067 -0.05 0.018076955 -45.124654 -1.0511048e-15 5.6590126
0.81655178 -0.05 0.018855954 -44.581534 1.5738445e-15 5.5510905
0.8103222 -0.05 0.019629443 -44.041732 4.0743499e-16 5.4441773
0.80409194 -0.05 0.020397431 -43.505223 -9.1593626e-16 5.3391914
0.79786102 -0.05 0.021159951 -42.973851 6.017741e-16 5.2354439
0.79162942 -0.05 0.021916957 -42.446186 1.7808055e-15 5.1333731
0.78539717 -0.05 0.022668535 -41.923138 -6.4243008e-16 5.0330517
0.77916425 -0.05 0.02341465 -41.402394 -7.7630859e-17 4.9335114
0.77293068 -0.05 0.02415527 -40.882406 6.2244178e-16 4.835565
0.76669648 -0.05 0.024890457 -40.359952 1.6596131e-17 4.7382822
0.76046162 -0.05 0.025620197 -39.83312 -1.634539e-16 4.6413066
0.75422613 -0.05 0.026344478 -39.301297 1.2998026e-15 4.5445343
0.74799001 -0.05 0.027063274 -38.767547 -1.5683736e-15 4.4482228
0.74175326 -0.05 0.027776568 -38.234807 1.2777239e-15 4.3527966
0.73551587 -0.05 0.028484347 -37.707275 -1.4280436e-15 4.2586817
0.72927787 -0.05 0.029186574 -37.185883 -1.0714808e-15 4.1661377
0.72303924 -0.05 0.029883282 -36.67209 5.6433842e-16 4.0755169
0.7168 -0.05 0.030574502 -36.165635 -1.3122714e-16 3.9861973
0.71056014 -0.05 0.031260059 -35.66397 -9.4544565e-16 3.8978892
0.70431966 -0.05 0.031940004 -35.16502 1.3912565e-15 3.8115507
0.69807856 -0.05 0.032614302 -34.66536 -7.3194194e-16 3.7251473
0.69183686 -0.05 0.03328286 -34.160226 -2.6625508e-16 3.6396758
0.68559454 -0.05 0.033945735 -33.647767 -1.4125776e-15 3.5538192
0.67935161 -0.05 0.034602828 -33.128698 -1.3090034e-15 3.4679149
0.67310808 -0.05 0.03525415 -32.610351 7.6004219e-16 3.3825848
0.66686395 -0.05 0.035899584 -32.098025 -2.1193721e-15 3.2980103
0.66061919 -0.05 0.036539031 -31.595486 -1.1462717e-15 3.2155124
0.65437383 -0.05 0.037172574 -31.102512 3.7899185e-16 3.1348668
0.64812786 -0.05 0.037800127 -30.618544 2.2619094e-15 3.0554057
0.64188129 -0.05 0.038421524 -30.139225 7.8939094e-16 2.9773329
0.63563409 -0.05 0.039036734 -29.659697 1.2517107e-15 2.90032
0.62938629 -0.05 0.039645757 -29.17261 -2.2187396e-17 2.8234245
0.62313788 -0.05 0.040248456 -28.67187 -3.8018633e-16 2.7456049
0.61688886 -0.05 0.040844746 -28.159685 4.1656536e-16 2.6674596
0.61063922 -0.05 0.041434625 -27.646804 -5.3504535e-16 2.5894486
0.60438897 -0.05 0.042017948 -27.140781 4.1969379e-16 2.5125276
0.59813811 -0.05 0.042594643 -26.644673 -1.7474229e-16 2.4373852
0.59188663 -0.05 0.043164625 -26.156633 -7.7087963e-16 2.3635754
0.58563452 -0.05 0.043727804 -25.676521 -1.4952458e-16 2.2915707
0.5793818 -0.05 0.044284065 -25.199124 5.1246648e-16 2.220591
0.57312846 -0.05 0.044833263 -24.716254 1.8089411e-16 2.150345
0.56687451 -0.05 0.045375365 -24.216991 -1.2534454e-16 2.0797345
0.56061993 -0.05 0.045910247 -23.694304 1.8724894e-16 2.0076321
0.55436472 -0.05 0.046437751 -23.153636 4.0241368e-16 1.9344515
0.54810889 -0.05 0.046957803 -22.614316 1.1379951e-17 1.8618188
0.54185243 -0.05 0.04747024 -22.087222 4.7468176e-16 1.7907025
0.53559534 -0.05 0.047974925 -21.571813 -7.0927797e-16 1.721598
0.52933762 -0.05 0.048471786 -21.068505 2.6050846e-16 1.6543482
0.52307928 -0.05 0.04896065 -20.575742 1.5225834e-16 1.589079
0.51682031 -0.05 0.049441377 -20.088146 -4.3276019e-16 1.525925
0.5105607 -0.05 0.049913798 -19.594268 -2.3747395e-16 1.4636829
0.50430046 -0.05 0.050377774 -19.077884 -1.726922e-16 1.4010394
0.49803959 -0.05 0.050833184 -18.534018 -1.0550121e-16 1.3367307
0.49177809 -0.05 0.051279829 -17.992504 4.9908431e-16 1.2728646
0.48551595 -0.05 0.051717505 -17.461265 2.801593e-16 1.2104738
0.47925318 -0.05 0.052146088 -16.941884 -3.8963836e-16 1.1498338
0.4729898 -0.05 0.052565441 -16.436022 -2.1074697e-16 1.0903306
0.46672579 -0.05 0.052975311 -15.938922 3.2085903e-18 1.032085
0.46046114 -0.05 0.053375486 -15.450153 -5.1338379e-16 0.9756653
0.45419588 -0.05 0.053765803 -14.969221 3.1241436e-17 0.92104161
0.44793 -0.05 0.054146078 -14.496902 -2.6259565e-16 0.86809732
0.4416635 -0.05 0.054516084 -14.032081 -3.3616205e-16 0.8167381
0.4353964 -0.05 0.054875583 -13.574332 8.203662e-17 0.76692925
0.42912868 -0.05 0.055224362 -13.124431 -2.6643766e-16 0.71889357
0.42286037 -0.05 0.055562224 -12.688067 -1.4077678e-16 0.67266792
0.41659147 -0.05 0.055888919 -12.267789 6.0088378e-16 0.62825823
0.41032198 -0.05 0.056204169 -11.864677 1.6359671e-16 0.58573003
0.40405191 -0.05 0.056507749 -11.479636 -4.9154279e-16 0.545225
0.39778128 -0.05 0.056799374 -11.11025 1.8626698e-16 0.50638341
0.3915101 -0.05 0.057078734 -10.760473 1.1817368e-16 0.46910989
0.38523837 -0.05 0.057345615 -10.431721 2.1323803e-16 0.43375766
0.37896611 -0.05 0.057599774 -10.122567 6.8294958e-17 0.40012286
0.37269332 -0.05 0.057840816 -9.8290287 1.015375e-16 0.36780718
0.36642004 -0.05 0.058068417 -9.5481957 2.3086292e-16 0.33685361
0.36014628 -0.05 0.058282337 -9.2794828 3.5461316e-16 0.30698991
0.35387206 -0.05 0.058482238 -9.0215714 8.9185465e-17 0.27815205
0.34759739 -0.05 0.058667764 -8.7743762 -7.5337715e-17 0.25023999
0.34132231 -0.05 0.058838527 -8.5366518 -2.9598155e-17 0.22321624
0.33504683 -0.05 0.058994198 -8.3084805 -7.277418e-17 0.19708645
0.32877099 -0.05 0.059134386 -8.0890547 9.1082248e-17 0.17166883
0.32249482 -0.05 0.059258665 -7.8778568 6.4556364e-17 0.14705821
0.31621834 -0.05 0.059366645 -7.6747691 -1.6492566e-17 0.12321822
0.3099416 -0.05 0.059457913 -7.4808961 1.0037445e-16 0.10027962
0.30366463 -0.05 0.059532032 -7.2826688 4.684952e-17 0.07789863
