# yPlus  FACE_DATA 448
# x y z  yPlus
0.29663112 -0.05 -0.060416615 22.370652
0.29099423 -0.05 -0.060353581 22.649077
0.28543867 -0.05 -0.060276886 22.976904
0.27996331 -0.05 -0.060186732 23.293183
0.27456703 -0.05 -0.060083376 23.605825
0.26924871 -0.05 -0.059967104 23.913001
0.26400727 -0.05 -0.059838184 24.212209
0.25884166 -0.05 -0.05969685 24.504805
0.25375081 -0.05 -0.059543383 24.791472
0.2487337 -0.05 -0.05937802 25.073901
0.24378928 -0.05 -0.059200935 25.349947
0.23891657 -0.05 -0.059012401 25.619715
0.23411455 -0.05 -0.05881265 25.880117
0.22938226 -0.05 -0.058601937 26.127664
0.22471872 -0.05 -0.0583805 26.362903
0.22012299 -0.05 -0.0581485 26.585126
0.21559411 -0.05 -0.057906195 26.79305
0.21113118 -0.05 -0.0576538 26.992833
0.20673328 -0.05 -0.057391441 27.188483
0.20239951 -0.05 -0.057119374 27.387185
0.19812899 -0.05 -0.056837807 27.584161
0.19392084 -0.05 -0.056546963 27.773232
0.18977421 -0.05 -0.056247041 27.943165
0.18568826 -0.05 -0.055938117 28.085457
0.18166214 -0.05 -0.055620436 28.201876
0.17769503 -0.05 -0.055294184 28.307764
0.17378614 -0.05 -0.054959516 28.430994
0.16993464 -0.05 -0.05461663 28.584492
0.16613977 -0.05 -0.054265685 28.756382
0.16240075 -0.05 -0.053906811 28.945665
0.15871682 -0.05 -0.053540131 29.152866
0.15508722 -0.05 -0.053165864 29.387102
0.15151121 -0.05 -0.052784119 29.654023
0.14798809 -0.05 -0.052395033 29.946029
0.14451711 -0.05 -0.051998748 30.250066
0.14109758 -0.05 -0.051595352 30.554735
0.1377288 -0.05 -0.051184997 30.853814
0.13441011 -0.05 -0.050767794 31.145046
0.1311408 -0.05 -0.050343907 31.425481
0.12792023 -0.05 -0.049913439 31.695439
0.12474775 -0.05 -0.049476412 31.952933
0.1216227 -0.05 -0.049033002 32.198589
0.11854446 -0.05 -0.048583326 32.432984
0.11551241 -0.05 -0.048127393 32.654847
0.11252596 -0.05 -0.047665271 32.864263
0.1095845 -0.05 -0.047197087 33.06178
0.10668744 -0.05 -0.046722869 33.247283
0.10383421 -0.05 -0.046242702 33.420921
0.10102421 -0.05 -0.045756737 33.585217
0.098256912 -0.05 -0.045264911 33.739856
0.095531776 -0.05 -0.04476727 33.883014
0.092848245 -0.05 -0.044263954 34.017185
0.090205817 -0.05 -0.043754873 34.141758
0.087603972 -0.05 -0.043240085 34.254926
0.085042198 -0.05 -0.042719649 34.360193
0.08252 -0.05 -0.042193589 34.456302
0.080036892 -0.05 -0.041661939 34.545255
0.077592426 -0.05 -0.041124588 34.623979
0.075186144 -0.05 -0.040581522 34.690637
0.072817578 -0.05 -0.040032809 34.746148
0.070486285 -0.05 -0.039478461 34.792034
0.068191861 -0.05 -0.038918359 34.827169
0.065933894 -0.05 -0.038352459 34.849885
0.063711974 -0.05 -0.037780751 34.861883
0.061525726 -0.05 -0.037203135 34.863098
0.05937478 -0.05 -0.036619524 34.853596
0.057258774 -0.05 -0.03602985 34.831152
0.05517737 -0.05 -0.035434004 34.797854
0.053130218 -0.05 -0.03483195 34.752377
0.05111703 -0.05 -0.034223491 34.698298
0.049137516 -0.05 -0.033608474 34.629467
0.047191377 -0.05 -0.032986827 34.550633
0.045278358 -0.05 -0.032358365 34.459924
0.043398228 -0.05 -0.031722896 34.358926
0.041550799 -0.05 -0.031080142 34.245895
0.039735873 -0.05 -0.030429905 34.120005
0.037953255 -0.05 -0.029772034 33.98197
0.036202817 -0.05 -0.029106239 33.833626
0.034484461 -0.05 -0.028432213 33.670968
0.032798117 -0.05 -0.027749638 33.498706
0.031143737 -0.05 -0.027058201 33.313413
0.02952132 -0.05 -0.026357545 33.116613
0.027930929 -0.05 -0.025647243 32.905511
0.026372639 -0.05 -0.024926911 32.681425
0.024846606 -0.05 -0.024196069 32.444866
0.023353048 -0.05 -0.0234542 32.193776
0.021892232 -0.05 -0.022700801 31.926874
0.020464553 -0.05 -0.02193525 31.644463
0.019070422 -0.05 -0.021156978 31.343357
0.017710427 -0.05 -0.020365271 31.027793
0.016385238 -0.05 -0.01955938 30.687543
0.01509562 -0.05 -0.018738571 30.327449
0.013842526 -0.05 -0.017902011 29.941168
0.012627095 -0.05 -0.017048855 29.528662
0.011450658 -0.05 -0.016178225 29.077616
0.010314778 -0.05 -0.015289145 28.585544
0.0092212153 -0.05 -0.014380583 28.045486
0.0081720441 -0.05 -0.013451707 27.450988
0.0071697627 -0.05 -0.012501704 26.786855
0.0062171144 -0.05 -0.011529516 26.033023
0.0053171644 -0.05 -0.010534448 25.160114
0.0044736467 -0.05 -0.0095163709 24.144039
0.0036904352 -0.05 -0.0084749466 22.958674
0.0029716155 -0.05 -0.0074103911 21.562747
0.0023219135 -0.05 -0.006324069 19.907945
0.0017458895 -0.05 -0.0052174965 17.964902
0.0012478606 -0.05 -0.0040932122 15.668804
0.00083171553 -0.05 -0.0029552895 12.902732
0.00050049347 -0.05 -0.0018081568 9.7053062
0.00025589795 -0.05 -0.00065713542 6.4533087
9.7956487e-05 -0.05 0.00049171648 2.7503327
2.5116563e-05 -0.05 0.0016323475 7.1173007
0.9968608 -0.05 -0.0070218498 3.4784684
0.99064 -0.05 -0.0078630024 0.79122695
0.98441826 -0.05 -0.0086971591 0.85965393
0.97819559 -0.05 -0.0095243467 0.39858182
0.971972 -0.05 -0.010344672 0.59736229
0.96574754 -0.05 -0.011158293 0.39175156
0.95952221 -0.05 -0.011965194 0.52747337
0.95329601 -0.05 -0.012765436 0.49273452
0.94706899 -0.05 -0.013559177 0.52635185
0.94084115 -0.05 -0.014346499 0.53012491
0.9346125 -0.05 -0.01512741 0.5453128
0.92838306 -0.05 -0.015901968 0.55540117
0.92215284 -0.05 -0.01667025 0.56461862
0.91592185 -0.05 -0.017432292 0.57319304
0.90969012 -0.05 -0.018188245 0.58374503
0.90345766 -0.05 -0.018938105 0.59484312
0.89722447 -0.05 -0.019681906 0.60720249
0.89099058 -0.05 -0.020419783 0.61467322
0.88475599 -0.05 -0.02115175 0.62565025
0.8785207 -0.05 -0.021877749 0.633317
0.87228474 -0.05 -0.022597919 0.64196612
0.86604811 -0.05 -0.023312328 0.64873081
0.85981082 -0.05 -0.024020949 0.6611494
0.85357288 -0.05 -0.024723865 0.68378653
0.84733432 -0.05 -0.025421142 0.71167573
0.84109513 -0.05 -0.026112765 0.83237019
0.83485531 -0.05 -0.026798697 0.9218199
0.82861488 -0.05 -0.027479115 0.88962557
0.82237385 -0.05 -0.028153978 0.91648589
0.81613222 -0.05 -0.028823241 0.85286457
0.80989 -0.05 -0.029486982 0.89601645
0.80364718 -0.05 -0.030145211 0.84699514
0.7974038 -0.05 -0.030797961 0.85206968
0.79115985 -0.05 -0.031445185 0.83055949
0.78491533 -0.05 -0.032086971 0.79101022
0.77867026 -0.05 -0.032723284 0.73039608
0.77242462 -0.05 -0.033354091 0.6378509
0.76617844 -0.05 -0.033979454 0.49950043
0.7599317 -0.05 -0.034599359 0.25286049
0.75368444 -0.05 -0.035213796 0.39798207
0.74743663 -0.05 -0.035822737 0.5796812
0.74118829 -0.05 -0.036426166 0.72802856
0.73493942 -0.05 -0.037024069 0.86624243
0.72869002 -0.05 -0.03761641 0.99976367
0.7224401 -0.05 -0.038203223 1.133793
0.71618966 -0.05 -0.038784538 1.2676019
0.70993869 -0.05 -0.039360179 1.3995202
0.70368722 -0.05 -0.039930198 1.533844
0.69743523 -0.05 -0.04049456 1.6715279
0.69118272 -0.05 -0.041053173 1.81227
0.68492971 -0.05 -0.041606093 1.9592586
0.67867619 -0.05 -0.042153222 2.1118232
0.67242216 -0.05 -0.042694568 2.2711389
0.66616762 -0.05 -0.043230018 2.4350001
0.65991259 -0.05 -0.043759469 2.6011947
0.65365704 -0.05 -0.044283008 2.7718604
0.647401 -0.05 -0.044800548 2.9473111
0.64114445 -0.05 -0.045311921 3.1265087
0.6348874 -0.05 -0.045817097 3.3088588
0.62862985 -0.05 -0.046316076 3.4950333
0.6223718 -0.05 -0.046808722 3.6845612
0.61611325 -0.05 -0.04729495 3.8775321
0.6098542 -0.05 -0.047774756 4.0757012
0.60359466 -0.05 -0.048247996 4.2877981
0.59733462 -0.05 -0.048714599 4.5100247
0.59107407 -0.05 -0.049174479 4.7356381
0.58481302 -0.05 -0.049627547 4.9649574
0.57855149 -0.05 -0.050073686 5.1991935
0.57228945 -0.05 -0.050512751 5.437037
0.56602692 -0.05 -0.050944711 5.6790796
0.5597639 -0.05 -0.051369444 5.9251477
0.55350037 -0.05 -0.051786785 6.1754612
0.54723636 -0.05 -0.052196667 6.4311923
0.54097185 -0.05 -0.052598923 6.6922122
0.53470684 -0.05 -0.052993418 6.9571135
0.52844136 -0.05 -0.053380077 7.227065
0.52217538 -0.05 -0.053758732 7.5021849
0.51590892 -0.05 -0.054129238 7.7847973
0.50964196 -0.05 -0.054491429 8.0736405
0.50337453 -0.05 -0.054845166 8.3670701
0.49710662 -0.05 -0.055190325 8.6661015
0.49083822 -0.05 -0.05552671 8.9717476
0.48456935 -0.05 -0.055854117 9.2873674
0.47830002 -0.05 -0.056172422 9.628334
0.47203022 -0.05 -0.056481486 10.014562
0.46575996 -0.05 -0.056781059 10.411296
0.45948925 -0.05 -0.057070927 10.805365
0.45321808 -0.05 -0.057350926 11.199607
0.44694648 -0.05 -0.057620875 11.596208
0.44067444 -0.05 -0.057880546 11.995994
0.43440198 -0.05 -0.0581297 12.399759
0.4281291 -0.05 -0.058368126 12.808803
0.42185582 -0.05 -0.058595626 13.222472
0.41558213 -0.05 -0.05881195 13.641207
0.40930806 -0.05 -0.05901682 14.065153
0.40303363 -0.05 -0.059210012 14.494321
0.39675884 -0.05 -0.059391241 14.928041
0.39048371 -0.05 -0.059560197 15.364947
0.38420825 -0.05 -0.059716666 15.806725
0.37793248 -0.05 -0.059860407 16.253863
0.37165644 -0.05 -0.059991022 16.705052
0.36538013 -0.05 -0.060108191 17.158804
0.35910357 -0.05 -0.060211672 17.617295
0.3528268 -0.05 -0.060301127 18.080039
0.34654985 -0.05 -0.060376203 18.546912
0.34027272 -0.05 -0.06043651 19.016041
0.33399547 -0.05 -0.060481721 19.488328
0.32771814 -0.05 -0.060511444 19.962937
0.32144076 -0.05 -0.060525255 20.440054
0.31516335 -0.05 -0.060522766 20.917698
0.30888597 -0.05 -0.06050356 21.39987
0.30260866 -0.05 -0.060467206 21.934269
0.29768712 -0.05 0.059586643 22.906558
0.29204999 -0.05 0.059622816 22.592777
0.28649394 -0.05 0.0596439 22.257121
0.28101784 -0.05 0.059650116 21.934053
0.27562056 -0.05 0.059641739 21.625423
0.27030103 -0.05 0.059619078 21.329987
0.26505813 -0.05 0.059582416 21.048372
0.25989084 -0.05 0.059532009 20.77992
0.25479809 -0.05 0.059468155 20.525207
0.24977883 -0.05 0.059391109 20.283588
0.24483206 -0.05 0.059301064 20.052926
0.23995679 -0.05 0.059198309 19.832022
0.23515201 -0.05 0.059083096 19.619474
0.23041673 -0.05 0.058955695 19.41461
0.22575002 -0.05 0.058816361 19.218652
0.22115091 -0.05 0.058665273 19.030455
0.21661847 -0.05 0.058502705 18.850601
0.2121518 -0.05 0.058328888 18.67933
0.20774995 -0.05 0.058143962 18.515015
0.20341207 -0.05 0.057948204 18.35815
0.19913726 -0.05 0.057741834 18.208984
0.19492465 -0.05 0.057525091 18.067221
0.19077338 -0.05 0.057298188 17.933325
0.18668261 -0.05 0.057061216 17.805584
0.18265153 -0.05 0.056814437 17.684631
0.1786793 -0.05 0.056558049 17.571028
0.17476512 -0.05 0.056292221 17.463074
0.17090819 -0.05 0.056017167 17.361868
0.16710772 -0.05 0.055733058 17.266384
0.16336296 -0.05 0.055440038 17.176924
0.15967316 -0.05 0.055138246 17.092368
0.15603753 -0.05 0.054827911 17.013423
0.15245536 -0.05 0.054509157 16.940126
0.14892594 -0.05 0.05418213 16.871692
0.14544852 -0.05 0.053846988 16.809684
0.14202243 -0.05 0.053503832 16.752527
0.13864695 -0.05 0.053152825 16.700235
0.13532142 -0.05 0.05279409 16.652418
0.13204517 -0.05 0.052427801 16.609431
0.12881751 -0.05 0.052054075 16.571601
0.12563783 -0.05 0.051672946 16.536559
0.12250547 -0.05 0.0512846 16.505002
0.11941979 -0.05 0.050889164 16.479456
0.11638018 -0.05 0.05048666 16.457811
0.11338607 -0.05 0.050077165 16.440031
0.11043682 -0.05 0.049660819 16.426168
0.10753187 -0.05 0.049237655 16.417043
0.10467062 -0.05 0.048807774 16.410148
0.10185251 -0.05 0.048371335 16.408212
0.099076984 -0.05 0.047928284 16.408834
0.096343514 -0.05 0.047478678 16.410891
0.093651541 -0.05 0.047022664 16.417934
0.091000564 -0.05 0.046560164 16.429322
0.088390062 -0.05 0.046091243 16.442037
0.085819525 -0.05 0.04561597 16.459079
0.083288461 -0.05 0.045134377 16.476942
0.080796381 -0.05 0.044646506 16.500024
0.078342837 -0.05 0.044152257 16.525293
0.07592737 -0.05 0.043651621 16.553765
0.073549516 -0.05 0.043144675 16.585503
0.071208829 -0.05 0.042631439 16.62106
0.068904903 -0.05 0.042111802 16.656949
0.066637327 -0.05 0.041585725 16.691806
0.06440569 -0.05 0.041053206 16.728685
0.062209615 -0.05 0.040514154 16.769485
0.060048731 -0.05 0.039968486 16.815093
0.057922676 -0.05 0.03941614 16.865483
0.05583111 -0.05 0.038857016 16.918309
0.05377368 -0.05 0.03829108 16.972062
0.051750096 -0.05 0.037718144 17.028279
0.049760065 -0.05 0.037138057 17.082933
0.047803287 -0.05 0.036550755 17.143807
0.045879505 -0.05 0.035956055 17.207702
0.043988484 -0.05 0.035353772 17.273091
0.042130029 -0.05 0.034743628 17.337738
0.040303941 -0.05 0.034125432 17.403084
0.038510022 -0.05 0.033499033 17.476894
0.036748138 -0.05 0.032864146 17.563074
0.035018187 -0.05 0.032220463 17.654758
0.033320092 -0.05 0.031567671 17.74848
0.0316538 -0.05 0.030905454 17.838632
0.030019305 -0.05 0.030233459 17.928895
0.028416661 -0.05 0.029551254 18.023764
0.026845935 -0.05 0.028858457 18.123856
0.025307276 -0.05 0.028154582 18.214893
0.023800894 -0.05 0.027439114 18.298197
0.022327047 -0.05 0.026711538 18.394642
0.020886116 -0.05 0.025971229 18.513958
0.019478505 -0.05 0.025217613 18.628587
0.018104788 -0.05 0.024449961 18.69122
0.016765623 -0.05 0.023667516 18.661356
0.015461758 -0.05 0.022869529 18.573214
0.014194138 -0.05 0.02205515 18.478154
0.012963881 -0.05 0.021223515 18.476645
0.011772304 -0.05 0.020373723 18.654567
0.010620954 -0.05 0.01950477 19.006356
0.0095115722 -0.05 0.018615594 19.549712
0.0084462169 -0.05 0.017705325 20.273165
0.0074273725 -0.05 0.016773107 21.214142
0.0064577631 -0.05 0.015817836 22.182598
0.0055404412 -0.05 0.014838758 22.996142
0.004679138 -0.05 0.013835683 23.569634
0.0038777207 -0.05 0.012808202 23.873098
0.0031402782 -0.05 0.011756462 23.873467
0.0024715596 -0.05 0.010681741 23.528654
0.0018761513 -0.05 0.0095854773 22.855517
0.0013584143 -0.05 0.0084701313 21.810386
0.0009223085 -0.05 0.0073397081 20.35303
0.00057095042 -0.05 0.0061985819 18.494012
0.00030613705 -0.05 0.0050520432 16.212799
0.00012800249 -0.05 0.0039061486 13.436189
3.5100961e-05 -0.05 0.002766976 10.167964
0.99686872 -0.05 -0.0061225322 71.697971
0.99066368 -0.05 -0.005172036 65.786318
0.98445758 -0.05 -0.004228518 65.75534
0.97825043 -0.05 -0.0032919515 65.502982
0.97204225 -0.05 -0.0023622306 65.2836
0.96583307 -0.05 -0.001439197 65.035198
0.9596229 -0.05 -0.000522868 64.783768
0.95341175 -0.05 0.00038681987 64.518829
0.94719965 -0.05 0.0012900211 64.24924
0.94098664 -0.05 0.0021868201 63.971777
0.93477269 -0.05 0.0030772216 63.688749
0.92855785 -0.05 0.0039612858 63.397862
0.92234211 -0.05 0.0048390888 63.10236
0.9161255 -0.05 0.0057106658 62.800675
0.90990804 -0.05 0.0065761675 62.495609
0.90368973 -0.05 0.0074355914 62.185431
0.8974706 -0.05 0.0082889689 61.873025
0.89125067 -0.05 0.0091364357 61.558063
0.88502992 -0.05 0.0099780055 61.242204
0.87880837 -0.05 0.010813622 60.923261
0.87258605 -0.05 0.011643421 60.602702
0.86636296 -0.05 0.012467472 60.280031
0.8601391 -0.05 0.013285746 59.954901
0.85391451 -0.05 0.01409833 59.624888
0.84768918 -0.05 0.014905285 59.29175
0.84146313 -0.05 0.015706599 58.954101
0.83523634 -0.05 0.016502234 58.612403
0.82900885 -0.05 0.017292365 58.266252
0.82278067 -0.05 0.018076955 57.918063
0.81655178 -0.05 0.018855954 57.567551
0.8103222 -0.05 0.019629443 57.217651
0.80409194 -0.05 0.020397431 56.86727
0.79786102 -0.05 0.021159951 56.51833
0.79162942 -0.05 0.021916957 56.169609
0.78539717 -0.05 0.022668535 55.821951
0.77916425 -0.05 0.02341465 55.473804
0.77293068 -0.05 0.02415527 55.123863
0.76669648 -0.05 0.024890457 54.76998
0.76046162 -0.05 0.025620197 54.411134
0.75422613 -0.05 0.026344478 54.046052
0.74799001 -0.05 0.027063274 53.677418
0.74175326 -0.05 0.027776568 53.306703
0.73551587 -0.05 0.028484347 52.93725
0.72927787 -0.05 0.029186574 52.569369
0.72303924 -0.05 0.029883282 52.204256
0.7168 -0.05 0.030574502 51.842039
0.71056014 -0.05 0.031260059 51.481316
0.70431966 -0.05 0.031940004 51.119405
0.69807856 -0.05 0.032614302 50.754808
0.69183686 -0.05 0.03328286 50.383304
0.68559454 -0.05 0.033945735 50.003821
0.67935161 -0.05 0.034602828 49.616376
0.67310808 -0.05 0.03525415 49.226413
0.66686395 -0.05 0.035899584 48.838011
0.66061919 -0.05 0.036539031 48.453932
0.65437383 -0.05 0.037172574 48.073968
0.64812786 -0.05 0.037800127 47.698305
0.64188129 -0.05 0.038421524 47.323214
0.63563409 -0.05 0.039036734 46.945274
0.62938629 -0.05 0.039645757 46.558155
0.62313788 -0.05 0.040248456 46.156807
0.61688886 -0.05 0.040844746 45.742475
0.61063922 -0.05 0.041434625 45.324041
0.60438897 -0.05 0.042017948 44.907065
0.59813811 -0.05 0.042594643 44.494446
0.59188663 -0.05 0.043164625 44.084991
0.58563452 -0.05 0.043727804 43.678812
0.5793818 -0.05 0.044284065 43.27103
0.57312846 -0.05 0.044833263 42.854626
0.56687451 -0.05 0.045375365 42.419769
0.56061993 -0.05 0.045910247 41.959785
0.55436472 -0.05 0.046437751 41.478225
0.54810889 -0.05 0.046957803 40.992234
0.54185243 -0.05 0.04747024 40.511721
0.53559534 -0.05 0.047974925 40.036435
0.52933762 -0.05 0.048471786 39.566622
0.52307928 -0.05 0.04896065 39.101468
0.51682031 -0.05 0.049441377 38.635711
0.5105607 -0.05 0.049913798 38.158285
0.50430046 -0.05 0.050377774 37.652354
0.49803959 -0.05 0.050833184 37.112313
0.49177809 -0.05 0.051279829 36.566459
0.48551595 -0.05 0.051717505 36.023265
0.47925318 -0.05 0.052146088 35.483809
0.4729898 -0.05 0.052565441 34.950553
0.46672579 -0.05 0.052975311 34.418501
0.46046114 -0.05 0.053375486 33.887472
0.45419588 -0.05 0.053765803 33.356021
0.44793 -0.05 0.054146078 32.826012
0.4416635 -0.05 0.054516084 32.295622
0.4353964 -0.05 0.054875583 31.765061
0.42912868 -0.05 0.055224362 31.234521
0.42286037 -0.05 0.055562224 30.711416
0.41659147 -0.05 0.055888919 30.199009
0.41032198 -0.05 0.056204169 29.699469
0.40405191 -0.05 0.056507749 29.213665
0.39778128 -0.05 0.056799374 28.740404
0.3915101 -0.05 0.057078734 28.284728
0.38523837 -0.05 0.057345615 27.849985
0.37896611 -0.05 0.057599774 27.43445
0.37269332 -0.05 0.057840816 27.034355
0.36642004 -0.05 0.058068417 26.645572
0.36014628 -0.05 0.058282337 26.268408
0.35387206 -0.05 0.058482238 25.900434
0.34759739 -0.05 0.058667764 25.54336
0.34132231 -0.05 0.058838527 25.194683
0.33504683 -0.05 0.058994198 24.855887
0.32877099 -0.05 0.059134386 24.525006
0.32249482 -0.05 0.059258665 24.202884
0.31621834 -0.05 0.059366645 23.888823
0.3099416 -0.05 0.059457913 23.585196
0.30366463 -0.05 0.059532032 23.243309
