# p  FACE_DATA 448
# x y z  p
0.29846933 -0.05 -0.05895212 99532.821
0.29283318 -0.05 -0.059062685 99526.746
0.2872779 -0.05 -0.059157091 99520.436
0.28180235 -0.05 -0.059235574 99514.36
0.27640544 -0.05 -0.059298428 99508.313
0.27108606 -0.05 -0.059345971 99502.438
0.26584314 -0.05 -0.059378504 99496.693
0.26067562 -0.05 -0.059396295 99491.177
0.25558247 -0.05 -0.059399656 99485.677
0.25056265 -0.05 -0.059388856 99480.352
0.24561512 -0.05 -0.059364102 99475.116
0.24073891 -0.05 -0.059325695 99470.043
0.23593302 -0.05 -0.059273901 99465.167
0.23119649 -0.05 -0.059209003 99460.412
0.22652833 -0.05 -0.059131269 99455.754
0.22192763 -0.05 -0.059040888 99451.26
0.21739345 -0.05 -0.058938149 99446.689
0.21292486 -0.05 -0.058823295 99442.321
0.20852096 -0.05 -0.058696478 99438.181
0.20418087 -0.05 -0.058557984 99434.153
0.19990371 -0.05 -0.058408047 99430.302
0.19568861 -0.05 -0.058246918 99426.457
0.1915347 -0.05 -0.058074818 99422.752
0.18744118 -0.05 -0.057891854 99419.279
0.18340719 -0.05 -0.057698294 99415.848
0.17943192 -0.05 -0.057494351 99412.718
0.17551457 -0.05 -0.057280202 99409.617
0.17165434 -0.05 -0.057056073 99406.625
0.16785046 -0.05 -0.056822144 99403.574
0.16410216 -0.05 -0.056578569 99400.673
0.16040869 -0.05 -0.056325498 99397.926
0.15676928 -0.05 -0.05606317 99395.304
0.15318322 -0.05 -0.055791717 99392.902
0.14964978 -0.05 -0.055511298 99390.523
0.14616825 -0.05 -0.055222078 99388.334
0.14273792 -0.05 -0.054924165 99386.348
0.13935811 -0.05 -0.054617735 99384.561
0.13602814 -0.05 -0.054302918 99383.058
0.13274733 -0.05 -0.0539799 99381.572
0.12951503 -0.05 -0.053648803 99380.362
0.12633059 -0.05 -0.053309668 99379.365
0.12319338 -0.05 -0.052962694 99378.323
0.12010275 -0.05 -0.052608015 99377.455
0.1170581 -0.05 -0.052245659 99376.832
0.11405884 -0.05 -0.051875714 99376.395
0.11110436 -0.05 -0.051498325 99376.065
0.10819407 -0.05 -0.051113537 99376.125
0.1053274 -0.05 -0.050721452 99376.183
0.10250377 -0.05 -0.050322242 99376.346
0.099722646 -0.05 -0.049915858 99376.949
0.096983476 -0.05 -0.049502365 99377.571
0.09428572 -0.05 -0.049081918 99378.31
0.091628869 -0.05 -0.048654443 99379.568
0.089012407 -0.05 -0.048220014 99380.838
0.086435822 -0.05 -0.047778706 99382.508
0.083898622 -0.05 -0.047330558 99384.124
0.081400322 -0.05 -0.046875618 99386.061
0.078940468 -0.05 -0.04641379 99388.428
0.076518606 -0.05 -0.045945076 99391.136
0.074134268 -0.05 -0.045469555 99393.925
0.071787011 -0.05 -0.044987254 99396.969
0.069476428 -0.05 -0.044498068 99400.494
0.067202106 -0.05 -0.044001962 99404.255
0.064963636 -0.05 -0.043498941 99408.338
0.062760639 -0.05 -0.042988918 99412.854
0.060592742 -0.05 -0.042471814 99417.794
0.058459584 -0.05 -0.041947574 99423.164
0.056360819 -0.05 -0.041416101 99429.014
0.0542961 -0.05 -0.040877367 99435.057
0.052265131 -0.05 -0.040331186 99442.032
0.050267619 -0.05 -0.039777412 99449.329
0.04830326 -0.05 -0.039215986 99457.242
0.046371797 -0.05 -0.038646726 99465.619
0.044472992 -0.05 -0.038069451 99474.759
0.042606647 -0.05 -0.037483887 99484.86
0.04077256 -0.05 -0.036889844 99495.694
0.038970531 -0.05 -0.036287174 99507.19
0.037200422 -0.05 -0.035675593 99519.712
0.035462126 -0.05 -0.035054797 99533.214
0.033755564 -0.05 -0.034424472 99547.975
0.032080678 -0.05 -0.033784303 99563.851
0.030437457 -0.05 -0.033133937 99581.2
0.028825948 -0.05 -0.032472941 99600.032
0.027246216 -0.05 -0.031800934 99620.382
0.025698403 -0.05 -0.031117427 99642.678
0.02418271 -0.05 -0.0304219 99666.903
0.02269939 -0.05 -0.029713839 99693.338
0.021248814 -0.05 -0.02899261 99722.331
0.01983138 -0.05 -0.028257636 99753.756
0.018447651 -0.05 -0.02750818 99788.599
0.017098277 -0.05 -0.026743476 99826.609
0.015783995 -0.05 -0.025962765 99868.578
0.014505737 -0.05 -0.025165187 99914.668
0.013264612 -0.05 -0.02434986 99965.489
0.012061925 -0.05 -0.023515867 100020.99
0.010899207 -0.05 -0.022662186 100082.39
0.0097781873 -0.05 -0.021787727 100150.77
0.008700912 -0.05 -0.020891597 100226.38
0.0076698537 -0.05 -0.019972906 100308.89
0.006687722 -0.05 -0.019030513 100399.71
0.005757559 -0.05 -0.018063627 100498.06
0.004883093 -0.05 -0.017072006 100604.76
0.0040681858 -0.05 -0.016055192 100718.85
0.0033169275 -0.05 -0.015013274 100838.96
0.0026340841 -0.05 -0.013947473 100962.97
0.00202426 -0.05 -0.012859162 101087.98
0.0014918488 -0.05 -0.011750745 101209.77
0.0010408626 -0.05 -0.010626176 101322.43
0.00067447555 -0.05 -0.0094897862 101419.51
0.00039455423 -0.05 -0.0083468422 101498.02
0.00020131267 -0.05 -0.0072033984 101555.42
9.3385445e-05 -0.05 -0.006065551 101587.08
0.99672287 -0.05 0.015978513 99956.594
0.99053093 -0.05 0.01494621 99966.847
0.98433782 -0.05 0.013920872 99957.354
0.97814356 -0.05 0.012902471 99962.149
0.9719482 -0.05 0.011890901 99959.187
0.96575173 -0.05 0.010886005 99959.887
0.9595542 -0.05 0.0098877989 99958.682
0.9533556 -0.05 0.0088962209 99958.344
0.94715597 -0.05 0.0079111165 99957.532
0.94095532 -0.05 0.0069324016 99956.913
0.93475367 -0.05 0.0059600715 99956.148
0.92855103 -0.05 0.0049940663 99955.427
0.92234742 -0.05 0.0040343099 99954.633
0.91614285 -0.05 0.0030807675 99953.851
0.90993736 -0.05 0.0021332886 99953.012
0.90373094 -0.05 0.0011918759 99952.174
0.89752361 -0.05 0.00025649811 99951.283
0.8913154 -0.05 -0.00067298015 99950.387
0.8851063 -0.05 -0.0015965725 99949.442
0.87889632 -0.05 -0.0025142222 99948.486
0.87268549 -0.05 -0.0034260664 99947.482
0.86647382 -0.05 -0.0043321726 99946.467
0.86026131 -0.05 -0.0052325123 99945.403
0.85404798 -0.05 -0.0061271717 99944.321
0.84783384 -0.05 -0.0070162131 99943.19
0.8416189 -0.05 -0.0078996226 99942.038
0.83540316 -0.05 -0.008777364 99940.836
0.82918664 -0.05 -0.009649612 99939.603
0.82296935 -0.05 -0.010516327 99938.323
0.81675128 -0.05 -0.011377462 99937.009
0.81053246 -0.05 -0.012233096 99935.648
0.80431288 -0.05 -0.013083239 99934.253
0.79809256 -0.05 -0.013927922 99932.803
0.79187149 -0.05 -0.014767102 99931.309
0.7856497 -0.05 -0.015600862 99929.758
0.77942718 -0.05 -0.016429169 99928.163
0.77320393 -0.05 -0.01725199 99926.509
0.76697996 -0.05 -0.018069386 99924.807
0.76075528 -0.05 -0.018881344 99923.039
0.75452989 -0.05 -0.019687853 99921.216
0.7483038 -0.05 -0.020488885 99919.327
0.742077 -0.05 -0.021284424 99917.378
0.73584951 -0.05 -0.022074456 99915.367
0.72962131 -0.05 -0.022858945 99913.293
0.72339241 -0.05 -0.023637925 99911.145
0.71716284 -0.05 -0.024411425 99908.922
0.71093256 -0.05 -0.02517927 99906.629
0.7047016 -0.05 -0.025941512 99904.239
0.69846995 -0.05 -0.026698117 99901.782
0.69223761 -0.05 -0.027448988 99899.223
0.6860046 -0.05 -0.028194187 99896.576
0.67977088 -0.05 -0.028933611 99893.833
0.67353649 -0.05 -0.029667273 99890.983
0.66730141 -0.05 -0.030395056 99888.044
0.66106564 -0.05 -0.031116859 99884.99
0.65482918 -0.05 -0.031832768 99881.82
0.64859204 -0.05 -0.032542695 99878.544
0.64235421 -0.05 -0.033246476 99875.162
0.63611568 -0.05 -0.033944076 99871.662
0.62987646 -0.05 -0.034635499 99868.029
0.62363655 -0.05 -0.035320607 99864.275
0.61739594 -0.05 -0.035999314 99860.39
0.61115463 -0.05 -0.036671619 99856.375
0.60491262 -0.05 -0.037337376 99852.225
0.59866992 -0.05 -0.037996514 99847.921
0.59242651 -0.05 -0.038648948 99843.514
0.58618238 -0.05 -0.039294589 99838.963
0.57993754 -0.05 -0.039933319 99834.301
0.573692 -0.05 -0.040564994 99829.48
0.56744575 -0.05 -0.041189583 99824.507
0.56119876 -0.05 -0.041806962 99819.408
0.55495106 -0.05 -0.042416969 99814.186
0.54870264 -0.05 -0.043019536 99808.8
0.54245349 -0.05 -0.043614496 99803.29
0.5362036 -0.05 -0.044201713 99797.626
0.52995298 -0.05 -0.044781114 99791.852
0.52370164 -0.05 -0.045352528 99785.942
0.51744955 -0.05 -0.045915813 99779.884
0.51119672 -0.05 -0.046470801 99773.715
0.50494315 -0.05 -0.047017354 99767.426
0.49868884 -0.05 -0.04755535 99761.013
0.49243378 -0.05 -0.048084589 99754.465
0.48617796 -0.05 -0.048604869 99747.799
0.47992141 -0.05 -0.049116066 99741.111
0.4736641 -0.05 -0.049618041 99734.49
0.46740603 -0.05 -0.050110542 99727.812
0.46114722 -0.05 -0.050593357 99720.987
0.45488765 -0.05 -0.051066323 99714.04
0.44862734 -0.05 -0.051529257 99707.035
0.44236627 -0.05 -0.051981931 99700.001
0.43610445 -0.05 -0.052424106 99692.872
0.42984189 -0.05 -0.052855571 99685.68
0.42357858 -0.05 -0.053276127 99678.473
0.41731453 -0.05 -0.053685525 99671.273
0.41104974 -0.05 -0.054083487 99664
0.40478424 -0.05 -0.054469787 99656.637
0.39851801 -0.05 -0.054844141 99649.326
0.39225104 -0.05 -0.055206238 99642.069
0.38598339 -0.05 -0.055555864 99634.726
0.37971502 -0.05 -0.055892777 99627.286
0.37344597 -0.05 -0.056216581 99619.939
0.36717624 -0.05 -0.056526951 99612.631
0.36090585 -0.05 -0.056823648 99605.31
0.35463481 -0.05 -0.057106333 99597.916
0.34836314 -0.05 -0.05737465 99590.542
0.34209086 -0.05 -0.057628212 99583.274
0.33581798 -0.05 -0.057866688 99575.964
0.32954454 -0.05 -0.058089686 99568.659
0.32327055 -0.05 -0.058296781 99561.382
0.31699604 -0.05 -0.058487584 99554.132
0.31072104 -0.05 -0.058661678 99546.728
0.3044456 -0.05 -0.058818629 99539.998
0.29582974 -0.05 0.06102675 99449.604
0.29019418 -0.05 0.060889331 99444.379
0.28464012 -0.05 0.060739325 99439.893
0.27916641 -0.05 0.06057692 99435.401
0.27377196 -0.05 0.060402357 99431.044
0.26845564 -0.05 0.06021591 99426.819
0.26321636 -0.05 0.060017828 99422.687
0.25805307 -0.05 0.059808336 99418.731
0.25296469 -0.05 0.059587698 99414.805
0.24795019 -0.05 0.059356137 99411.068
0.24300855 -0.05 0.059113817 99407.438
0.23813874 -0.05 0.058860993 99403.937
0.23333978 -0.05 0.058597887 99400.553
0.22861068 -0.05 0.05832474 99397.256
0.22395047 -0.05 0.058041776 99394.08
0.21935819 -0.05 0.057749146 99391.08
0.21483291 -0.05 0.057447094 99388.107
0.2103737 -0.05 0.057135823 99385.318
0.20597965 -0.05 0.056815447 99382.679
0.20164984 -0.05 0.056486211 99380.144
0.19738341 -0.05 0.056148309 99377.773
0.19317947 -0.05 0.055801956 99375.426
0.18903716 -0.05 0.055447336 99373.229
0.18495563 -0.05 0.055084516 99371.236
0.18093405 -0.05 0.05471373 99369.28
0.17697161 -0.05 0.054335153 99367.543
0.17306747 -0.05 0.053948926 99365.868
0.16922084 -0.05 0.053555243 99364.348
0.16543093 -0.05 0.053154246 99362.915
0.16169696 -0.05 0.052746058 99361.704
0.15801819 -0.05 0.052330792 99360.613
0.15439384 -0.05 0.051908658 99359.602
0.15082319 -0.05 0.051479755 99358.782
0.14730551 -0.05 0.051044207 99358.032
0.14384006 -0.05 0.050602149 99357.46
0.14042615 -0.05 0.05015366 99357.041
0.13706309 -0.05 0.049698883 99356.795
0.13375018 -0.05 0.049237919 99356.735
0.13048676 -0.05 0.048770924 99356.732
0.12727215 -0.05 0.048297992 99356.955
0.1241057 -0.05 0.047819134 99357.364
0.12098678 -0.05 0.047334522 99357.787
0.11791475 -0.05 0.046844261 99358.373
0.11488898 -0.05 0.046348353 99359.177
0.11190889 -0.05 0.045846859 99360.207
0.10897386 -0.05 0.045339898 99361.401
0.10608331 -0.05 0.044827487 99362.924
0.10323666 -0.05 0.044309707 99364.477
0.10043332 -0.05 0.043786701 99366.124
0.097672761 -0.05 0.043258397 99368.071
0.094954429 -0.05 0.042724837 99370.141
0.092277774 -0.05 0.04218615 99372.431
0.089642295 -0.05 0.04164224 99375.155
0.08704747 -0.05 0.04109316 99378.023
0.084492787 -0.05 0.040538962 99381.226
0.081977752 -0.05 0.039979661 99384.42
0.079501876 -0.05 0.039415287 99387.873
0.077064714 -0.05 0.038845723 99391.704
0.074665809 -0.05 0.038270949 99395.907
0.072304691 -0.05 0.037691026 99400.356
0.069980917 -0.05 0.037105959 99405.144
0.067694084 -0.05 0.036515627 99410.257
0.065443782 -0.05 0.035919978 99415.524
0.0632296 -0.05 0.035318995 99421.104
0.061051164 -0.05 0.034712579 99427.222
0.058908107 -0.05 0.034100632 99433.886
0.056800069 -0.05 0.033483083 99441.109
0.05472671 -0.05 0.032859821 99448.712
0.052687682 -0.05 0.032230802 99456.441
0.050682698 -0.05 0.031595828 99464.828
0.048711474 -0.05 0.030954741 99473.751
0.046773708 -0.05 0.030307466 99483.457
0.044869149 -0.05 0.029653811 99493.853
0.04299757 -0.05 0.028993586 99504.846
0.041158784 -0.05 0.028326507 99516.441
0.039352597 -0.05 0.027652375 99528.932
0.037578817 -0.05 0.026971035 99542.351
0.035837318 -0.05 0.026282198 99556.982
0.034128007 -0.05 0.025585552 99572.85
0.032450817 -0.05 0.024880783 99589.607
0.030805706 -0.05 0.024167572 99606.83
0.029192677 -0.05 0.023445568 99625.432
0.027611799 -0.05 0.022714338 99646.124
0.02606315 -0.05 0.021973505 99668.894
0.024546895 -0.05 0.021222586 99693.476
0.023063257 -0.05 0.020461071 99719.086
0.021612513 -0.05 0.01968846 99746.869
0.02019506 -0.05 0.018904133 99777.962
0.018811321 -0.05 0.018107531 99811.449
0.017461893 -0.05 0.017297946 99847.41
0.016147456 -0.05 0.016474636 99885.507
0.014868781 -0.05 0.015636879 99926.238
0.013626838 -0.05 0.014783854 99970.626
0.012422771 -0.05 0.013914731 100021.51
0.011257926 -0.05 0.013028653 100078.52
0.010133878 -0.05 0.012124661 100143.08
0.0090524015 -0.05 0.011201745 100215.47
0.0080155802 -0.05 0.010259104 100294.44
0.0070259234 -0.05 0.0092959566 100379.63
0.006086188 -0.05 0.0083112817 100470.46
0.0051994484 -0.05 0.0073044231 100567.1
0.0043694399 -0.05 0.0062753024 100671.01
0.0036000404 -0.05 0.0052236324 100782.75
0.0028953323 -0.05 0.0041496834 100899.74
0.0022600232 -0.05 0.0030548816 101019.76
0.0016986529 -0.05 0.0019408036 101139.87
0.0012155048 -0.05 0.00081004477 101255.7
0.00081441323 -0.05 -0.00033327079 101361.42
0.00049835886 -0.05 -0.0014846747 101450.91
0.00026897481 -0.05 -0.0026388239 101522.44
0.00012620863 -0.05 -0.0037896602 101571
6.8428092e-05 -0.05 -0.0049311532 101592.32
0.99670309 -0.05 0.016877647 100177.8
0.99047174 -0.05 0.017636631 100057.94
0.98423952 -0.05 0.018388605 100061.55
0.97800648 -0.05 0.019133599 100040.25
0.97177261 -0.05 0.019871719 100029.53
0.96553795 -0.05 0.020603125 100017.29
0.95930251 -0.05 0.021327799 100007.14
0.9530663 -0.05 0.022045804 99997.401
0.94682934 -0.05 0.022757297 99988.441
0.94059165 -0.05 0.023462362 99979.82
0.93435324 -0.05 0.024161004 99971.842
0.92811412 -0.05 0.024853284 99964.089
0.9218743 -0.05 0.025539278 99956.819
0.9156338 -0.05 0.026219023 99949.804
0.90939264 -0.05 0.026892668 99942.935
0.90315082 -0.05 0.027560213 99936.419
0.89690836 -0.05 0.028221689 99930.092
0.89066527 -0.05 0.028877232 99923.841
0.88442157 -0.05 0.029526856 99917.783
0.87817724 -0.05 0.030170505 99912.026
0.87193231 -0.05 0.030808316 99906.219
0.8656868 -0.05 0.031440357 99900.649
0.85944071 -0.05 0.032066601 99895.201
0.85319404 -0.05 0.032687134 99889.854
0.84694682 -0.05 0.033302019 99884.528
0.84069904 -0.05 0.033911242 99879.369
0.83445071 -0.05 0.034514767 99874.406
0.82820185 -0.05 0.03511277 99869.214
0.82195245 -0.05 0.035705211 99864.337
0.81570254 -0.05 0.036292044 99859.395
0.8094521 -0.05 0.036873348 99854.603
0.80320114 -0.05 0.037449133 99849.751
0.79694969 -0.05 0.038019431 99845.001
0.79069773 -0.05 0.038584197 99840.336
0.7844453 -0.05 0.039143517 99835.562
0.77819236 -0.05 0.039697357 99830.963
0.77193895 -0.05 0.040245685 99826.335
0.76568506 -0.05 0.040788562 99821.749
0.75943068 -0.05 0.041325975 99817.192
0.75317585 -0.05 0.041857912 99812.664
0.74692055 -0.05 0.042384347 99808.146
0.74066479 -0.05 0.042905263 99803.634
0.73440858 -0.05 0.043420647 99799.139
0.7281519 -0.05 0.043930463 99794.692
0.72189478 -0.05 0.044434743 99790.146
0.71563721 -0.05 0.04493352 99785.563
0.7093792 -0.05 0.045426616 99781.205
0.70312074 -0.05 0.045914083 99776.605
0.69686185 -0.05 0.046395889 99772.253
0.69060252 -0.05 0.046871938 99767.793
0.68434275 -0.05 0.047342288 99763.341
0.67808256 -0.05 0.04780684 99758.89
0.67182193 -0.05 0.048265605 99754.294
0.66556088 -0.05 0.048718467 99749.795
0.65929939 -0.05 0.049165323 99745.301
0.65303748 -0.05 0.049606261 99740.689
0.64677516 -0.05 0.050041194 99736.139
0.64051241 -0.05 0.050469954 99731.673
0.63424923 -0.05 0.050892511 99727.181
0.62798564 -0.05 0.051308865 99722.593
0.62172164 -0.05 0.05171888 99718.093
0.61545721 -0.05 0.052122471 99713.485
0.60919238 -0.05 0.052519633 99708.8
0.60292713 -0.05 0.052910224 99704.153
0.59666147 -0.05 0.053294172 99699.441
0.59039541 -0.05 0.053671391 99694.806
0.58412893 -0.05 0.054041791 99690.123
0.57786205 -0.05 0.054405257 99685.513
0.57159477 -0.05 0.054761644 99680.881
0.56532708 -0.05 0.055110919 99676.16
0.559059 -0.05 0.05545296 99671.391
0.5527905 -0.05 0.055787605 99666.581
0.54652163 -0.05 0.056114784 99661.677
0.54025236 -0.05 0.056434332 99656.826
0.5339827 -0.05 0.056746112 99651.918
0.52771265 -0.05 0.057050052 99647.05
0.52144221 -0.05 0.05734598 99642.209
0.5151714 -0.05 0.057633755 99637.283
0.50890022 -0.05 0.057913208 99632.352
0.50262866 -0.05 0.058184203 99627.338
0.49635674 -0.05 0.058446614 99622.252
0.49008446 -0.05 0.058700245 99617.125
0.48381181 -0.05 0.058944892 99612.021
0.47753882 -0.05 0.059180433 99606.825
0.47126549 -0.05 0.059406726 99601.587
0.46499183 -0.05 0.059623523 99596.324
0.45871783 -0.05 0.059830611 99590.993
0.45244352 -0.05 0.060027825 99585.625
0.4461689 -0.05 0.060214982 99580.27
0.43989399 -0.05 0.060391858 99574.891
0.43361878 -0.05 0.060558213 99569.481
0.4273433 -0.05 0.060713834 99564.038
0.42106755 -0.05 0.060858524 99558.533
0.41479157 -0.05 0.060992035 99553.006
0.40851534 -0.05 0.061114087 99547.462
0.4022389 -0.05 0.061224458 99541.865
0.39596227 -0.05 0.061322862 99536.314
0.38968545 -0.05 0.06140899 99530.795
0.38340847 -0.05 0.061482628 99525.226
0.37713137 -0.05 0.061543534 99519.612
0.37085413 -0.05 0.061591312 99514.098
0.36457682 -0.05 0.061625641 99508.544
0.35829945 -0.05 0.06164628 99502.996
0.35202204 -0.05 0.061652893 99497.453
0.34574464 -0.05 0.061645125 99491.937
0.33946727 -0.05 0.061622587 99486.467
0.33318998 -0.05 0.061584952 99480.977
0.32691279 -0.05 0.061531829 99475.555
0.32063577 -0.05 0.061462796 99470.227
0.31435895 -0.05 0.061377463 99465.021
0.30808237 -0.05 0.061275416 99459.514
0.30180609 -0.05 0.061156222 99453.362
