# wallShearStress  FACE_DATA 448
# x y z  wallShearStress_x wallShearStress_y wallShearStress_z
0.29846933 -0.05 -0.05895212 -6.7858259 8.1277157e-17 -0.12587925
0.29283318 -0.05 -0.059062685 -7.0815681 1.4803409e-16 -0.11305209
0.2872779 -0.05 -0.059157091 -7.3385043 -5.1938578e-17 -0.09845217
0.28180235 -0.05 -0.059235574 -7.5965357 4.9277636e-17 -0.082080764
0.27640544 -0.05 -0.059298428 -7.8541831 6.1832589e-17 -0.064828272
0.27108606 -0.05 -0.059345971 -8.1135145 -3.036481e-18 -0.044575793
0.26584314 -0.05 -0.059378504 -8.3736481 6.8448267e-19 -0.02182225
0.26067562 -0.05 -0.059396295 -8.6332522 -1.2638984e-17 0.0021009621
0.25558247 -0.05 -0.059399656 -8.8921456 -3.362594e-18 0.028109151
0.25056265 -0.05 -0.059388856 -9.1514563 1.3555301e-17 0.056441337
0.24561512 -0.05 -0.059364102 -9.4103853 -2.3354296e-17 0.083486889
0.24073891 -0.05 -0.059325695 -9.6682248 -3.3094868e-17 0.11284369
0.23593302 -0.05 -0.059273901 -9.9238753 -4.8199998e-17 0.14392177
0.23119649 -0.05 -0.059209003 -10.175801 -1.1800619e-16 0.17717377
0.22652833 -0.05 -0.059131269 -10.42472 6.7700756e-17 0.21252173
0.22192763 -0.05 -0.059040888 -10.669634 2.046291e-17 0.24965821
0.21739345 -0.05 -0.058938149 -10.90986 -1.3393063e-16 0.28834128
0.21292486 -0.05 -0.058823295 -11.143931 -9.168292e-17 0.32896188
0.20852096 -0.05 -0.058696478 -11.370037 -2.0778177e-16 0.37116301
0.20418087 -0.05 -0.058557984 -11.590219 -8.851093e-17 0.41498732
0.19990371 -0.05 -0.058408047 -11.80573 -9.8553083e-17 0.46058571
0.19568861 -0.05 -0.058246918 -12.020312 2.8033404e-16 0.50781025
0.1915347 -0.05 -0.058074818 -12.23951 8.1190463e-17 0.55697758
0.18744118 -0.05 -0.057891854 -12.457758 -4.3140927e-17 0.60753327
0.18340719 -0.05 -0.057698294 -12.671863 1.5773848e-16 0.65919933
0.17943192 -0.05 -0.057494351 -12.875448 1.6665443e-16 0.71245185
0.17551457 -0.05 -0.057280202 -13.06228 -8.1705783e-17 0.76708348
0.17165434 -0.05 -0.057056073 -13.229183 2.4197135e-16 0.8239137
0.16785046 -0.05 -0.056822144 -13.379462 5.3543307e-17 0.88334433
0.16410216 -0.05 -0.056578569 -13.526283 2.8925079e-17 0.94652261
0.16040869 -0.05 -0.056325498 -13.685369 -4.8429827e-17 1.0133493
0.15676928 -0.05 -0.05606317 -13.866079 -2.1869218e-16 1.0838916
0.15318322 -0.05 -0.055791717 -14.0571 1.0830786e-16 1.1575896
0.14964978 -0.05 -0.055511298 -14.257996 -9.2160294e-17 1.234443
0.14616825 -0.05 -0.055222078 -14.468827 -5.4663696e-17 1.3148226
0.14273792 -0.05 -0.054924165 -14.692046 7.6364508e-16 1.3984657
0.13935811 -0.05 -0.054617735 -14.932998 -7.1809614e-17 1.4858048
0.13602814 -0.05 -0.054302918 -15.194047 4.8258873e-16 1.5773447
0.13274733 -0.05 -0.0539799 -15.472313 9.3216106e-17 1.6732907
0.12951503 -0.05 -0.053648803 -15.761737 1.8028543e-16 1.7741288
0.12633059 -0.05 -0.053309668 -16.054782 4.822195e-16 1.8787571
0.12319338 -0.05 -0.052962694 -16.348123 -6.5107204e-16 1.9870217
0.12010275 -0.05 -0.052608015 -16.639162 -1.0984915e-16 2.0993609
0.1170581 -0.05 -0.052245659 -16.924298 1.846291e-16 2.2151079
0.11405884 -0.05 -0.051875714 -17.202026 8.0038835e-16 2.3339263
0.11110436 -0.05 -0.051498325 -17.471843 4.0657841e-16 2.4559823
0.10819407 -0.05 -0.051113537 -17.732451 -4.7647813e-16 2.5812499
0.1053274 -0.05 -0.050721452 -17.983405 2.0364619e-16 2.7090904
0.10250377 -0.05 -0.050322242 -18.225627 7.9019713e-17 2.8406219
0.099722646 -0.05 -0.049915858 -18.456803 8.635643e-17 2.9759214
0.096983476 -0.05 -0.049502365 -18.676731 -3.1380299e-16 3.1136337
0.09428572 -0.05 -0.049081918 -18.8865 -1.8916654e-16 3.2549751
0.091628869 -0.05 -0.048654443 -19.083655 1.6857854e-16 3.3992237
0.089012407 -0.05 -0.048220014 -19.268109 -4.5868428e-16 3.5458983
0.086435822 -0.05 -0.047778706 -19.441805 -3.6594669e-16 3.6958296
0.083898622 -0.05 -0.047330558 -19.604866 -5.9789979e-16 3.8487331
0.081400322 -0.05 -0.046875618 -19.757391 4.0481e-16 4.0055324
0.078940468 -0.05 -0.04641379 -19.897208 -6.0376397e-16 4.1651756
0.076518606 -0.05 -0.045945076 -20.02434 9.2060901e-17 4.3272023
0.074134268 -0.05 -0.045469555 -20.140127 -7.5568869e-16 4.4922851
0.071787011 -0.05 -0.044987254 -20.244453 -4.9286761e-16 4.6612094
0.069476428 -0.05 -0.044498068 -20.335503 -2.022731e-16 4.8332048
0.067202106 -0.05 -0.044001962 -20.41347 7.6373651e-16 5.0080582
0.064963636 -0.05 -0.043498941 -20.478671 3.1691087e-16 5.1864447
0.062760639 -0.05 -0.042988918 -20.530028 2.6606917e-16 5.3680744
0.060592742 -0.05 -0.042471814 -20.567055 4.4179235e-17 5.5526894
0.058459584 -0.05 -0.041947574 -20.589608 -3.2390453e-16 5.7404255
0.056360819 -0.05 -0.041416101 -20.597253 -8.7121977e-16 5.9310362
0.0542961 -0.05 -0.040877367 -20.590752 9.9554194e-18 6.1256162
0.052265131 -0.05 -0.040331186 -20.567466 -4.9150824e-16 6.3231321
0.050267619 -0.05 -0.039777412 -20.527708 -7.5304477e-17 6.5231504
0.04830326 -0.05 -0.039215986 -20.471816 -3.1339699e-16 6.7266366
0.046371797 -0.05 -0.038646726 -20.399175 -3.7445662e-16 6.9336018
0.044472992 -0.05 -0.038069451 -20.308599 8.8087076e-16 7.1439742
0.042606647 -0.05 -0.037483887 -20.198168 1.1155459e-15 7.3562946
0.04077256 -0.05 -0.036889844 -20.068257 3.9800379e-16 7.5705395
0.038970531 -0.05 -0.036287174 -19.91933 5.6442631e-16 7.7878247
0.037200422 -0.05 -0.035675593 -19.749682 1.2093803e-15 8.0074741
0.035462126 -0.05 -0.035054797 -19.558341 5.3394169e-16 8.2290082
0.033755564 -0.05 -0.034424472 -19.344037 -4.8524408e-16 8.451637
0.032080678 -0.05 -0.033784303 -19.106213 2.1179118e-16 8.6755767
0.030437457 -0.05 -0.033133937 -18.842866 -1.1627809e-15 8.8998043
0.028825948 -0.05 -0.032472941 -18.552464 3.7002612e-16 9.1229021
0.027246216 -0.05 -0.031800934 -18.234694 1.147932e-16 9.3449585
0.025698403 -0.05 -0.031117427 -17.887404 -3.1501738e-16 9.5639897
0.02418271 -0.05 -0.0304219 -17.509358 -5.6844598e-16 9.7786768
0.02269939 -0.05 -0.029713839 -17.099279 2.5976673e-17 9.9877698
0.021248814 -0.05 -0.02899261 -16.655194 1.2147417e-16 10.18825
0.01983138 -0.05 -0.028257636 -16.176598 6.130803e-16 10.379699
0.018447651 -0.05 -0.02750818 -15.66036 -1.4201167e-16 10.556948
0.017098277 -0.05 -0.026743476 -15.105256 1.9745676e-16 10.717524
0.015783995 -0.05 -0.025962765 -14.509873 1.0490345e-16 10.856941
0.014505737 -0.05 -0.025165187 -13.872515 -4.264121e-16 10.970678
0.013264612 -0.05 -0.02434986 -13.192297 -1.706034e-17 11.052648
0.012061925 -0.05 -0.023515867 -12.469077 -4.8368195e-16 11.099026
0.010899207 -0.05 -0.022662186 -11.701631 5.8745122e-16 11.101095
0.0097781873 -0.05 -0.021787727 -10.887986 -3.6103021e-17 11.047138
0.008700912 -0.05 -0.020891597 -10.030148 1.1451724e-15 10.926949
0.0076698537 -0.05 -0.019972906 -9.1339158 -7.0977459e-17 10.735714
0.006687722 -0.05 -0.019030513 -8.2066341 -6.438672e-16 10.459127
0.005757559 -0.05 -0.018063627 -7.2515607 4.7860133e-16 10.090467
0.004883093 -0.05 -0.017072006 -6.2803522 1.8469419e-16 9.6101599
0.0040681858 -0.05 -0.016055192 -5.310986 -1.7758762e-16 9.0020796
0.0033169275 -0.05 -0.015013274 -4.3622789 -6.1038953e-17 8.2687641
0.0026340841 -0.05 -0.013947473 -3.4578668 -1.1877845e-16 7.4127595
0.00202426 -0.05 -0.012859162 -2.6214625 5.7613744e-16 6.4429327
0.0014918488 -0.05 -0.011750745 -1.8748156 -3.1947385e-16 5.3797983
0.0010408626 -0.05 -0.010626176 -1.2442645 -1.5681473e-17 4.2572586
0.00067447555 -0.05 -0.0094897862 -0.7574868 -1.9854957e-16 3.1231427
0.00039455423 -0.05 -0.0083468422 -0.43828842 5.9450517e-17 2.0235291
0.00020131267 -0.05 -0.0072033984 -0.25764399 -1.3176973e-16 1.1108056
9.3385445e-05 -0.05 -0.006065551 -0.17150824 -1.5425065e-17 0.43877977
0.99672287 -0.05 0.015978513 0.035240646 -2.8022269e-16 -0.2320397
0.99053093 -0.05 0.01494621 0.0014910402 2.8063032e-16 1.2336771e-05
0.98433782 -0.05 0.013920872 0.0048929464 8.7102217e-16 0.00073097538
0.97814356 -0.05 0.012902471 -0.0019063993 2.1897172e-16 -0.00022462482
0.9719482 -0.05 0.011890901 0.0023852804 3.1523758e-17 0.00022113972
0.96575173 -0.05 0.010886005 0.00054848008 2.8363116e-16 1.0883171e-05
0.9595542 -0.05 0.0098877989 0.0016583071 3.8331349e-16 0.00018452432
0.9533556 -0.05 0.0088962209 0.0012563721 -2.129635e-16 0.00010445161
0.94715597 -0.05 0.0079111165 0.0015735271 1.4735976e-16 0.00016213918
0.94095532 -0.05 0.0069324016 0.0015398822 7.863831e-16 0.00013990767
0.93475367 -0.05 0.0059600715 0.0016716471 -6.0778602e-16 0.00016319959
0.92855103 -0.05 0.0049940663 0.0017223998 2.0714175e-16 0.00015802944
0.92234742 -0.05 0.0040343099 0.0018120632 -9.2962545e-16 0.00017255646
0.91614285 -0.05 0.0030807675 0.0018797646 2.8235324e-16 0.00017039147
0.90993736 -0.05 0.0021332886 0.0019733151 8.0338374e-16 0.00018542936
0.90373094 -0.05 0.0011918759 0.0020428062 -1.4539512e-16 0.000184001
0.89752361 -0.05 0.00025649811 0.0021471357 -8.9127227e-16 0.00019647167
0.8913154 -0.05 -0.00067298015 0.002206981 -5.02921e-16 0.00020175295
0.8851063 -0.05 -0.0015965725 0.0022961448 -1.0803878e-15 0.00021332826
0.87889632 -0.05 -0.0025142222 0.0023948683 -9.7488314e-16 0.00021862774
0.87268549 -0.05 -0.0034260664 0.0024981729 6.1263106e-16 0.00023184515
0.86647382 -0.05 -0.0043321726 0.0026000707 6.2068227e-16 0.00023920329
0.86026131 -0.05 -0.0052325123 0.00271764 3.3600004e-16 0.00025419601
0.85404798 -0.05 -0.0061271717 0.0028429122 -2.7880024e-16 0.00026724766
0.84783384 -0.05 -0.0070162131 0.0029945348 2.1042532e-16 0.00027331752
0.8416189 -0.05 -0.0078996226 0.0031052832 -3.5082151e-16 0.00027266241
0.83540316 -0.05 -0.008777364 0.0032488002 5.4078398e-17 0.00028615089
0.82918664 -0.05 -0.009649612 0.0033692095 -4.2211762e-16 0.00029681241
0.82296935 -0.05 -0.010516327 0.0035123304 -3.8721701e-16 0.00030110762
0.81675128 -0.05 -0.011377462 0.0037451005 1.23649e-15 0.00030085175
0.81053246 -0.05 -0.012233096 0.0040627099 -4.4382512e-16 0.00030665386
0.80431288 -0.05 -0.013083239 0.0044342557 -5.8642977e-17 0.00029261321
0.79809256 -0.05 -0.013927922 0.0054630852 6.5085805e-16 0.00031259157
0.79187149 -0.05 -0.014767102 0.0073696142 -5.1215398e-16 0.00057344513
0.7856497 -0.05 -0.015600862 0.007455372 -5.1921452e-16 0.00070727319
0.77942718 -0.05 -0.016429169 0.0076298507 -5.2272534e-16 0.00070232711
0.77320393 -0.05 -0.01725199 0.0075702686 -4.1901013e-16 0.00069141808
0.76697996 -0.05 -0.018069386 0.0069386887 -3.0262682e-16 0.00060834633
0.76075528 -0.05 -0.018881344 0.0070874136 -8.6336618e-16 0.00058233985
0.75452989 -0.05 -0.019687853 0.0067714485 -6.7696447e-16 0.0005347319
0.7483038 -0.05 -0.020488885 0.0061754641 -1.6846967e-16 0.00045096424
0.742077 -0.05 -0.021284424 0.0052604797 -1.0535344e-16 0.00031531966
0.73584951 -0.05 -0.022074456 0.0038893036 5.7054708e-17 0.0001208114
0.72962131 -0.05 -0.022858945 0.0020345686 -1.1216332e-15 -0.00012029134
0.72339241 -0.05 -0.023637925 -0.00034504417 -2.1713904e-16 -0.00041506998
0.71716284 -0.05 -0.024411425 -0.0032826495 -6.9773556e-16 -0.00071495626
0.71093256 -0.05 -0.02517927 -0.0057938595 -5.3042455e-17 -0.0010402543
0.7047016 -0.05 -0.025941512 -0.008819427 -4.651899e-16 -0.0014098311
0.69846995 -0.05 -0.026698117 -0.012416563 2.9123995e-16 -0.0018440404
0.69223761 -0.05 -0.027448988 -0.016589695 6.3797512e-16 -0.0023358238
0.6860046 -0.05 -0.028194187 -0.021468403 3.7245078e-16 -0.0029026288
0.67977088 -0.05 -0.028933611 -0.027040225 -1.2452289e-16 -0.0035387197
0.67353649 -0.05 -0.029667273 -0.033427445 9.5322514e-17 -0.0042535372
0.66730141 -0.05 -0.030395056 -0.040678723 1.6364699e-16 -0.0050498724
0.66106564 -0.05 -0.031116859 -0.04892363 3.125285e-16 -0.0059357261
0.65482918 -0.05 -0.031832768 -0.058487195 6.3455863e-16 -0.0069399735
0.64859204 -0.05 -0.032542695 -0.069541198 1.1532868e-15 -0.0080834518
0.64235421 -0.05 -0.033246476 -0.082050636 -7.250917e-16 -0.0093618824
0.63611568 -0.05 -0.033944076 -0.096031846 -1.5869146e-16 -0.010776154
0.62987646 -0.05 -0.034635499 -0.11159296 9.5602158e-16 -0.012324929
0.62363655 -0.05 -0.035320607 -0.12883295 2.8980388e-16 -0.014018898
0.61739594 -0.05 -0.035999314 -0.14775009 2.042034e-16 -0.015849972
0.61115463 -0.05 -0.036671619 -0.16845127 1.000538e-15 -0.017826621
0.60491262 -0.05 -0.037337376 -0.19092925 -3.4819448e-16 -0.019937755
0.59866992 -0.05 -0.037996514 -0.21566001 -4.4877564e-17 -0.022299963
0.59242651 -0.05 -0.038648948 -0.24437992 7.9323804e-18 -0.024875711
0.58618238 -0.05 -0.039294589 -0.27552284 2.0030141e-16 -0.02767914
0.57993754 -0.05 -0.039933319 -0.3090427 7.7087476e-17 -0.030649919
0.573692 -0.05 -0.040564994 -0.34499638 -3.3583946e-17 -0.033778945
0.56744575 -0.05 -0.041189583 -0.38371945 -2.8294785e-16 -0.037078355
0.56119876 -0.05 -0.041806962 -0.42529954 -4.7040901e-16 -0.040559683
0.55495106 -0.05 -0.042416969 -0.46959565 2.8280646e-16 -0.044202769
0.54870264 -0.05 -0.043019536 -0.51686586 2.1187395e-16 -0.048008873
0.54245349 -0.05 -0.043614496 -0.56731026 -2.4681207e-17 -0.051972388
0.5362036 -0.05 -0.044201713 -0.62103657 1.5002547e-16 -0.05610816
0.52995298 -0.05 -0.044781114 -0.67814926 1.1859663e-16 -0.060409087
0.52370164 -0.05 -0.045352528 -0.73863678 -1.3837522e-16 -0.064852748
0.51744955 -0.05 -0.045915813 -0.8027974 -2.9875371e-16 -0.069436086
0.51119672 -0.05 -0.046470801 -0.87105536 1.7308175e-16 -0.074187654
0.50494315 -0.05 -0.047017354 -0.94330504 1.9581754e-16 -0.079087164
0.49868884 -0.05 -0.04755535 -1.0195519 -1.492001e-16 -0.084099585
0.49243378 -0.05 -0.048084589 -1.0997739 -3.3515863e-18 -0.089196803
0.48617796 -0.05 -0.048604869 -1.184905 3.8966079e-16 -0.094513048
0.47992141 -0.05 -0.049116066 -1.2798957 3.8811451e-17 -0.1006797
0.4736641 -0.05 -0.049618041 -1.3929743 1.6783775e-17 -0.10784496
0.46740603 -0.05 -0.050110542 -1.513178 8.9643547e-17 -0.11473372
0.46114722 -0.05 -0.050593357 -1.6363347 1.3191484e-16 -0.12133184
0.45488765 -0.05 -0.051066323 -1.7637447 1.7619927e-17 -0.12723395
0.44862734 -0.05 -0.051529257 -1.8944693 1.6310309e-16 -0.13295045
0.44236627 -0.05 -0.051981931 -2.0302592 6.5700126e-17 -0.13921302
0.43610445 -0.05 -0.052424106 -2.1717696 4.8165408e-16 -0.14533559
0.42984189 -0.05 -0.052855571 -2.319392 1.9751047e-16 -0.15130275
0.42357858 -0.05 -0.053276127 -2.4729113 -2.0222383e-16 -0.15707653
0.41731453 -0.05 -0.053685525 -2.6319688 -3.8752402e-16 -0.16254544
0.41104974 -0.05 -0.054083487 -2.796982 -2.7211701e-16 -0.16766761
0.40478424 -0.05 -0.054469787 -2.9685377 4.4396976e-16 -0.17243928
0.39851801 -0.05 -0.054844141 -3.146317 -1.1453365e-16 -0.17677734
0.39225104 -0.05 -0.055206238 -3.3294782 1.05865e-16 -0.18061401
0.38598339 -0.05 -0.055555864 -3.5187923 3.6040555e-17 -0.18389687
0.37971502 -0.05 -0.055892777 -3.7151101 9.6868947e-17 -0.18655282
0.37344597 -0.05 -0.056216581 -3.9178454 3.0865358e-16 -0.188481
0.36717624 -0.05 -0.056526951 -4.1260784 1.1760864e-16 -0.18968543
0.36090585 -0.05 -0.056823648 -4.3407002 1.651454e-16 -0.19001428
0.35463481 -0.05 -0.057106333 -4.5621535 2.1290491e-18 -0.18939756
0.34836314 -0.05 -0.05737465 -4.7906153 3.5472628e-17 -0.18777161
0.34209086 -0.05 -0.057628212 -5.0252208 1.8719871e-16 -0.18504705
0.33581798 -0.05 -0.057866688 -5.2658338 2.7867472e-17 -0.18113085
0.32954454 -0.05 -0.058089686 -5.512752 -2.4824695e-16 -0.17578922
0.32327055 -0.05 -0.058296781 -5.7662038 4.885107e-18 -0.1690625
0.31699604 -0.05 -0.058487584 -6.0263523 -2.4136991e-16 -0.16088826
0.31072104 -0.05 -0.058661678 -6.2922356 8.1357466e-17 -0.15133333
0.3044456 -0.05 -0.058818629 -6.5300626 1.1478599e-16 -0.13922142
0.29582974 -0.05 0.06102675 -7.1068927 -1.0901519e-16 -0.16379533
0.29019418 -0.05 0.060889331 -6.9398721 -3.9737105e-17 -0.17809135
0.28464012 -0.05 0.060739325 -6.8162471 -6.8354443e-17 -0.19286448
0.27916641 -0.05 0.06057692 -6.6945266 1.7648452e-17 -0.20732784
0.27377196 -0.05 0.060402357 -6.5799944 -4.1934664e-17 -0.22144882
0.26845564 -0.05 0.06021591 -6.4713694 -3.3583885e-16 -0.23537975
0.26321636 -0.05 0.060017828 -6.3689546 2.7105899e-17 -0.24908426
0.25805307 -0.05 0.059808336 -6.272559 1.7837888e-16 -0.26269848
0.25296469 -0.05 0.059587698 -6.1819964 -1.4162644e-16 -0.27613076
0.24795019 -0.05 0.059356137 -6.0969857 1.0758478e-16 -0.28963417
0.24300855 -0.05 0.059113817 -6.0163953 -1.326157e-17 -0.30299224
0.23813874 -0.05 0.058860993 -5.9399812 3.5109988e-16 -0.31625764
0.23333978 -0.05 0.058597887 -5.8665619 -1.0690621e-16 -0.32938341
0.22861068 -0.05 0.05832474 -5.7957054 8.9023183e-18 -0.34246528
0.22395047 -0.05 0.058041776 -5.7283058 -4.5474949e-17 -0.35561506
0.21935819 -0.05 0.057749146 -5.6639996 -2.6889756e-17 -0.36877148
0.21483291 -0.05 0.057447094 -5.6030355 4.5268093e-16 -0.38187887
0.2103737 -0.05 0.057135823 -5.5455919 1.3678392e-17 -0.39518425
0.20597965 -0.05 0.056815447 -5.4907905 4.6190491e-17 -0.4084708
0.20164984 -0.05 0.056486211 -5.4389739 -6.037176e-17 -0.42179015
0.19738341 -0.05 0.056148309 -5.3901706 -7.5607092e-18 -0.43523146
0.19317947 -0.05 0.055801956 -5.3444635 2.114205e-16 -0.44877086
0.18903716 -0.05 0.055447336 -5.3021159 3.212353e-17 -0.46264082
0.18495563 -0.05 0.055084516 -5.2620806 1.9703156e-16 -0.47662415
0.18093405 -0.05 0.05471373 -5.2244951 -1.136356e-16 -0.49067343
0.17697161 -0.05 0.054335153 -5.1896069 6.4492165e-17 -0.50505013
0.17306747 -0.05 0.053948926 -5.1568035 -1.2093827e-16 -0.51951042
0.16922084 -0.05 0.053555243 -5.1267998 -3.7490384e-16 -0.53432624
0.16543093 -0.05 0.053154246 -5.0991603 2.2750215e-16 -0.54939881
0.16169696 -0.05 0.052746058 -5.0737823 -6.0660547e-19 -0.56482743
0.15801819 -0.05 0.052330792 -5.0501507 1.598346e-16 -0.58041119
0.15439384 -0.05 0.051908658 -5.0290608 -3.3697027e-16 -0.59638763
0.15082319 -0.05 0.051479755 -5.0104352 2.6315269e-16 -0.6128297
0.14730551 -0.05 0.051044207 -4.9940658 1.3195939e-17 -0.62959279
0.14384006 -0.05 0.050602149 -4.9801959 5.25618e-17 -0.64691849
0.14042615 -0.05 0.05015366 -4.9681352 6.1604065e-16 -0.66459976
0.13706309 -0.05 0.049698883 -4.9577961 2.8773043e-17 -0.68267075
0.13375018 -0.05 0.049237919 -4.9490347 4.1288844e-17 -0.70114067
0.13048676 -0.05 0.048770924 -4.9421912 -6.3651535e-17 -0.72004542
0.12727215 -0.05 0.048297992 -4.9375855 -9.7506938e-17 -0.7397244
0.1241057 -0.05 0.047819134 -4.9342912 5.4313305e-17 -0.7598519
0.12098678 -0.05 0.047334522 -4.9331656 4.1069877e-16 -0.78063415
0.11791475 -0.05 0.046844261 -4.9346308 7.2381987e-17 -0.80239741
0.11488898 -0.05 0.046348353 -4.9375871 9.7714758e-17 -0.82483319
0.11190889 -0.05 0.045846859 -4.9417676 2.988366e-16 -0.84784442
0.10897386 -0.05 0.045339898 -4.9471676 5.4361855e-16 -0.87153465
0.10608331 -0.05 0.044827487 -4.9533614 -2.3323777e-16 -0.89581645
0.10323666 -0.05 0.044309707 -4.9600888 2.9494313e-16 -0.9205466
0.10043332 -0.05 0.043786701 -4.9689965 -2.0871167e-16 -0.94654813
0.097672761 -0.05 0.043258397 -4.9792146 5.2257437e-17 -0.97347811
0.094954429 -0.05 0.042724837 -4.9902753 7.8294839e-17 -1.0009955
0.092277774 -0.05 0.04218615 -5.0027948 4.3428632e-17 -1.0296474
0.089642295 -0.05 0.04164224 -5.0153548 -2.5583141e-16 -1.0589358
0.08704747 -0.05 0.04109316 -5.0278837 -1.3366423e-16 -1.0886935
0.084492787 -0.05 0.040538962 -5.0425732 -3.3867852e-16 -1.1197497
0.081977752 -0.05 0.039979661 -5.0595802 -2.4081977e-16 -1.1521784
0.079501876 -0.05 0.039415287 -5.0802229 -4.2861376e-17 -1.1867552
0.077064714 -0.05 0.038845723 -5.1014348 -1.0050566e-16 -1.2223527
0.074665809 -0.05 0.038270949 -5.1218518 4.0114386e-16 -1.2585757
0.072304691 -0.05 0.037691026 -5.141774 5.7258558e-16 -1.2957313
0.069980917 -0.05 0.037105959 -5.1623046 -4.957241e-17 -1.334392
0.067694084 -0.05 0.036515627 -5.1833314 -2.8979485e-16 -1.3745104
0.065443782 -0.05 0.035919978 -5.2059791 6.4737846e-18 -1.4165804
0.0632296 -0.05 0.035318995 -5.2313615 2.2098992e-16 -1.4611759
0.061051164 -0.05 0.034712579 -5.2578395 -3.7444338e-16 -1.5075986
0.058908107 -0.05 0.034100632 -5.2840016 1.0232838e-16 -1.5554212
0.056800069 -0.05 0.033483083 -5.3097123 -7.7870674e-16 -1.6045704
0.05472671 -0.05 0.032859821 -5.3350666 3.4045784e-16 -1.6553025
0.052687682 -0.05 0.032230802 -5.3613994 7.7010627e-16 -1.7089351
0.050682698 -0.05 0.031595828 -5.3885734 -8.5946048e-16 -1.7653432
0.048711474 -0.05 0.030954741 -5.4133093 2.4635459e-16 -1.8229796
0.046773708 -0.05 0.030307466 -5.4366964 -2.1830326e-16 -1.882795
0.044869149 -0.05 0.029653811 -5.4586167 -1.1154858e-15 -1.9446384
0.04299757 -0.05 0.028993586 -5.4809792 -7.7335475e-17 -2.0100739
0.041158784 -0.05 0.028326507 -5.5043726 -1.5733476e-16 -2.0797932
0.039352597 -0.05 0.027652375 -5.5294344 -2.4110087e-16 -2.1532177
0.037578817 -0.05 0.026971035 -5.553727 5.3507559e-16 -2.2303007
0.035837318 -0.05 0.026282198 -5.5766358 1.6132598e-17 -2.3107465
0.034128007 -0.05 0.025585552 -5.5954785 2.9782519e-16 -2.3928545
0.032450817 -0.05 0.024880783 -5.6084151 4.0690089e-17 -2.4774835
0.030805706 -0.05 0.024167572 -5.616266 -6.0829902e-17 -2.5677085
0.029192677 -0.05 0.023445568 -5.6226098 7.1569371e-17 -2.663784
0.027611799 -0.05 0.022714338 -5.6173626 6.1095145e-16 -2.7589442
0.02606315 -0.05 0.021973505 -5.5984273 2.4381563e-16 -2.852643
0.024546895 -0.05 0.021222586 -5.5746351 -2.9019985e-16 -2.9484616
0.023063257 -0.05 0.020461071 -5.5534555 9.5330893e-16 -3.0517865
0.021612513 -0.05 0.01968846 -5.5350173 -2.7832467e-16 -3.1615429
0.02019506 -0.05 0.018904133 -5.4921142 7.2192938e-17 -3.2618972
0.018811321 -0.05 0.018107531 -5.3949391 -2.4410909e-16 -3.3455988
0.017461893 -0.05 0.017297946 -5.2381921 2.0941792e-16 -3.4114182
0.016147456 -0.05 0.016474636 -5.0231266 3.4114918e-18 -3.4644705
0.014868781 -0.05 0.015636879 -4.7876506 8.5856535e-16 -3.5353137
0.013626838 -0.05 0.014783854 -4.5730403 -1.7496822e-16 -3.6572241
0.012422771 -0.05 0.013914731 -4.4026546 -1.5307323e-16 -3.8614198
0.011257926 -0.05 0.013028653 -4.2496306 -6.9914769e-16 -4.1443112
0.010133878 -0.05 0.012124661 -4.1300681 -5.3005806e-16 -4.4972142
0.0090524015 -0.05 0.011201745 -4.0697868 -5.4871131e-16 -4.8984481
0.0080155802 -0.05 0.010259104 -4.1147517 3.2958064e-16 -5.3676369
0.0070259234 -0.05 0.0092959566 -4.160323 -1.4278765e-16 -5.8209578
0.006086188 -0.05 0.0083112817 -4.1202293 -9.4048968e-17 -6.1694919
0.0051994484 -0.05 0.0073044231 -3.9575541 2.5810633e-16 -6.3959709
0.0043694399 -0.05 0.0062753024 -3.6779234 2.7489579e-16 -6.4857575
0.0036000404 -0.05 0.0052236324 -3.2825279 3.0169942e-16 -6.3977245
0.0028953323 -0.05 0.0041496834 -2.8082883 -2.4021432e-16 -6.1215318
0.0022600232 -0.05 0.0030548816 -2.2902641 7.3407035e-17 -5.6834016
0.0016986529 -0.05 0.0019408036 -1.7673818 -3.2036726e-16 -5.0750475
0.0012155048 -0.05 0.00081004477 -1.268463 7.3080121e-18 -4.3085731
0.00081441323 -0.05 -0.00033327079 -0.83309541 -5.2724736e-17 -3.4319985
0.00049835886 -0.05 -0.0014846747 -0.51399677 1.9993932e-16 -2.4789675
0.00026897481 -0.05 -0.0026388239 -0.31076117 -7.7432736e-17 -1.4852563
0.00012620863 -0.05 -0.0037896602 -0.19071179 -5.987127e-17 -0.75421175
6.8428092e-05 -0.05 -0.0049311532 -0.1577895 7.7450579e-18 -0.13922173
0.99670309 -0.05 0.016877647 -52.562503 1.3981952e-15 6.2817029
0.99047174 -0.05 0.017636631 -53.662285 3.2304214e-17 6.5390234
0.98423952 -0.05 0.018388605 -54.754883 1.8484066e-15 6.5342877
0.97800648 -0.05 0.019133599 -54.047068 3.4286132e-16 6.4131731
0.97177261 -0.05 0.019871719 -53.700186 -1.3851842e-16 6.311126
0.96553795 -0.05 0.020603125 -53.236362 8.5250365e-20 6.1999766
0.95930251 -0.05 0.021327799 -52.790913 -8.155416e-16 6.0905379
0.9530663 -0.05 0.022045804 -52.328418 -2.1749519e-16 5.982093
0.94682934 -0.05 0.022757297 -51.861592 -4.5632747e-16 5.8744439
0.94059165 -0.05 0.023462362 -51.388153 1.3628303e-15 5.7677958
0.93435324 -0.05 0.024161004 -50.909018 5.3065612e-18 5.6613827
0.92811412 -0.05 0.024853284 -50.424046 -6.5456797e-16 5.5565566
0.9218743 -0.05 0.025539278 -49.932669 8.6426068e-16 5.4519781
0.9156338 -0.05 0.026219023 -49.435285 -2.8495693e-16 5.3488316
0.90939264 -0.05 0.026892668 -48.934006 3.3072216e-17 5.2466482
0.90315082 -0.05 0.027560213 -48.429907 4.977281e-16 5.1450879
0.89690836 -0.05 0.028221689 -47.924734 4.0506405e-16 5.0452389
0.89066527 -0.05 0.028877232 -47.420765 7.9113361e-16 4.9468643
0.88442157 -0.05 0.029526856 -46.91797 -7.7954215e-16 4.849408
0.87817724 -0.05 0.030170505 -46.415798 1.597342e-15 4.7533649
0.87193231 -0.05 0.030808316 -45.915113 1.0682168e-17 4.6594721
0.8656868 -0.05 0.031440357 -45.415279 -1.5960106e-15 4.5663086
0.85944071 -0.05 0.032066601 -44.91465 2.3358266e-16 4.4746251
0.85319404 -0.05 0.032687134 -44.412253 1.7474992e-17 4.3841109
0.84694682 -0.05 0.033302019 -43.90681 -3.8206442e-16 4.2944499
0.84069904 -0.05 0.033911242 -43.397198 2.8242787e-16 4.2051643
0.83445071 -0.05 0.034514767 -42.882574 6.9611537e-16 4.1167594
0.82820185 -0.05 0.03511277 -42.366164 -5.5141065e-16 4.0297225
0.82195245 -0.05 0.035705211 -41.849351 -4.7382102e-16 3.9425302
0.81570254 -0.05 0.036292044 -41.335615 7.3246531e-16 3.8573621
0.8094521 -0.05 0.036873348 -40.826965 -7.1342506e-16 3.7732761
0.80320114 -0.05 0.037449133 -40.324368 5.3489743e-16 3.6910955
0.79694969 -0.05 0.038019431 -39.827422 2.6268022e-16 3.6100523
0.79069773 -0.05 0.038584197 -39.335536 1.4731353e-16 3.5305729
0.7844453 -0.05 0.039143517 -38.848587 -4.3905728e-16 3.4527023
0.77819236 -0.05 0.039697357 -38.363063 -5.1783308e-17 3.3755423
0.77193895 -0.05 0.040245685 -37.875152 -9.2952024e-16 3.2995855
0.76568506 -0.05 0.040788562 -37.383122 -7.0766816e-16 3.2240189
0.75943068 -0.05 0.041325975 -36.885812 3.9718006e-16 3.148783
0.75317585 -0.05 0.041857912 -36.385521 -9.6863409e-16 3.073915
0.74692055 -0.05 0.042384347 -35.885889 -1.9347908e-16 2.9997214
0.74066479 -0.05 0.042905263 -35.391443 4.6750023e-16 2.9266626
0.73440858 -0.05 0.043420647 -34.90439 -9.5219813e-17 2.8549506
0.7281519 -0.05 0.043930463 -34.424965 8.1978486e-16 2.7846749
0.72189478 -0.05 0.044434743 -33.952948 -7.2507542e-16 2.7160565
0.71563721 -0.05 0.04493352 -33.486439 2.2945084e-16 2.648438
0.7093792 -0.05 0.045426616 -33.019842 -4.4931446e-17 2.5813515
0.70312074 -0.05 0.045914083 -32.54938 6.36353e-16 2.5154911
0.69686185 -0.05 0.046395889 -32.070313 4.6602941e-16 2.4489092
0.69060252 -0.05 0.046871938 -31.583687 7.1161228e-16 2.3829199
0.68434275 -0.05 0.047342288 -31.096151 -3.2788733e-16 2.3170185
0.67808256 -0.05 0.04780684 -30.615102 -4.2416492e-17 2.2521288
0.67182193 -0.05 0.048265605 -30.145293 3.3441168e-16 2.1887013
0.66556088 -0.05 0.048718467 -29.685887 -3.1862737e-16 2.1263286
0.65929939 -0.05 0.049165323 -29.235143 3.283807e-17 2.0657537
0.65303748 -0.05 0.049606261 -28.789476 -2.7313495e-16 2.006497
0.64677516 -0.05 0.050041194 -28.34128 3.7358934e-16 1.9474964
0.64051241 -0.05 0.050469954 -27.882756 -9.1650138e-16 1.8886105
0.63424923 -0.05 0.050892511 -27.410011 -4.6253016e-16 1.829487
0.62798564 -0.05 0.051308865 -26.928963 6.7316881e-16 1.7700561
0.62172164 -0.05 0.05171888 -26.451562 4.9622692e-17 1.710919
0.61545721 -0.05 0.052122471 -25.986189 8.0499175e-16 1.6534464
0.60919238 -0.05 0.052519633 -25.531797 7.6416352e-16 1.5972614
0.60292713 -0.05 0.052910224 -25.086653 -3.1719076e-18 1.5423155
0.59666147 -0.05 0.053294172 -24.647488 8.795494e-16 1.4888061
0.59039541 -0.05 0.053671391 -24.206285 -4.6186124e-16 1.4360478
0.58412893 -0.05 0.054041791 -23.751724 -1.7966388e-16 1.3836231
0.57786205 -0.05 0.054405257 -23.274439 -1.7659671e-16 1.3303648
0.57159477 -0.05 0.054761644 -22.777021 5.3294618e-16 1.2764568
0.56532708 -0.05 0.055110919 -22.277127 5.5441662e-16 1.222694
0.559059 -0.05 0.05545296 -21.788618 -3.1799026e-16 1.1699577
0.5527905 -0.05 0.055787605 -21.311073 -4.8055286e-16 1.1186498
0.54652163 -0.05 0.056114784 -20.845862 3.2111886e-16 1.0691764
0.54025236 -0.05 0.056434332 -20.391064 3.6728558e-16 1.0211438
0.5339827 -0.05 0.056746112 -19.941223 5.8844368e-18 0.97468646
0.52771265 -0.05 0.057050052 -19.48434 7.7355542e-17 0.92897165
0.52144221 -0.05 0.05734598 -19.002797 2.3144574e-17 0.88298619
0.5151714 -0.05 0.057633755 -18.493855 4.5444924e-16 0.83599451
0.50890022 -0.05 0.057913208 -17.989986 2.0371959e-17 0.78899485
0.50262866 -0.05 0.058184203 -17.494987 -5.1496267e-17 0.74304996
0.49635674 -0.05 0.058446614 -17.009887 -4.9436082e-17 0.69839484
0.49008446 -0.05 0.058700245 -16.536402 -3.0116602e-17 0.65505848
0.48381181 -0.05 0.058944892 -16.070122 3.6333844e-16 0.61303924
0.47753882 -0.05 0.059180433 -15.611497 4.2244667e-17 0.57247027
0.47126549 -0.05 0.059406726 -15.160345 -2.3920062e-16 0.53306622
0.46499183 -0.05 0.059623523 -14.715843 1.1680288e-16 0.49481739
0.45871783 -0.05 0.059830611 -14.277182 -3.091233e-16 0.45779195
0.45244352 -0.05 0.060027825 -13.84412 3.1472514e-16 0.42196101
0.4461689 -0.05 0.060214982 -13.41752 -2.3450233e-16 0.38728441
0.43989399 -0.05 0.060391858 -13.001677 2.0535708e-16 0.35380296
0.43361878 -0.05 0.060558213 -12.599043 4.9422995e-16 0.32157377
0.4273433 -0.05 0.060713834 -12.211642 -2.0331959e-17 0.29068066
0.42106755 -0.05 0.060858524 -11.840361 -1.903473e-16 0.26110276
0.41479157 -0.05 0.060992035 -11.48326 3.2247705e-17 0.23263527
0.40851534 -0.05 0.061114087 -11.14306 -1.0237803e-17 0.20518446
0.4022389 -0.05 0.061224458 -10.822301 -2.648447e-17 0.17894106
0.39596227 -0.05 0.061322862 -10.520524 7.2288271e-17 0.15380306
0.38968545 -0.05 0.06140899 -10.234067 -1.2354659e-17 0.12983151
0.38340847 -0.05 0.061482628 -9.9601116 5.7756727e-17 0.10689266
0.37713137 -0.05 0.061543534 -9.6978592 -5.5408029e-17 0.084761543
0.37085413 -0.05 0.061591312 -9.4456101 4.1062806e-17 0.062924085
0.36457682 -0.05 0.061625641 -9.2028009 -1.8518305e-17 0.040230493
0.35829945 -0.05 0.06164628 -8.9694583 -1.5960285e-17 0.018772517
0.35202204 -0.05 0.061652893 -8.7450086 -2.504786e-19 -0.0017035409
0.34574464 -0.05 0.061645125 -8.5287711 3.1277123e-18 -0.022158669
0.33946727 -0.05 0.061622587 -8.3204304 3.8549356e-17 -0.042399115
0.33318998 -0.05 0.061584952 -8.1198916 -5.684755e-17 -0.060147031
0.32691279 -0.05 0.061531829 -7.9267585 2.0492076e-17 -0.07816143
0.32063577 -0.05 0.061462796 -7.740222 -1.7148663e-16 -0.095894495
0.31435895 -0.05 0.061377463 -7.5603123 -1.3272341e-16 -0.11331867
0.30808237 -0.05 0.061275416 -7.3899332 8.8386977e-17 -0.13037558
0.30180609 -0.05 0.061156222 -7.2610526 7.3341374e-17 -0.1470699
