# yPlus  FACE_DATA 448
# x y z  yPlus
0.29846933 -0.05 -0.05895212 22.338948
0.29283318 -0.05 -0.059062685 22.766623
0.2872779 -0.05 -0.059157091 23.066544
0.28180235 -0.05 -0.059235574 23.359946
0.27640544 -0.05 -0.059298428 23.644758
0.27108606 -0.05 -0.059345971 23.925386
0.26584314 -0.05 -0.059378504 24.200218
0.26067562 -0.05 -0.059396295 24.468212
0.25558247 -0.05 -0.059399656 24.729019
0.25056265 -0.05 -0.059388856 24.985153
0.24561512 -0.05 -0.059364102 25.235166
0.24073891 -0.05 -0.059325695 25.479241
0.23593302 -0.05 -0.059273901 25.715938
0.23119649 -0.05 -0.059209003 25.944002
0.22652833 -0.05 -0.059131269 26.164637
0.22192763 -0.05 -0.059040888 26.377229
0.21739345 -0.05 -0.058938149 26.580964
0.21292486 -0.05 -0.058823295 26.774855
0.20852096 -0.05 -0.058696478 26.957035
0.20418087 -0.05 -0.058557984 27.130366
0.19990371 -0.05 -0.058408047 27.296722
0.19568861 -0.05 -0.058246918 27.460586
0.1915347 -0.05 -0.058074818 27.628666
0.18744118 -0.05 -0.057891854 27.794643
0.18340719 -0.05 -0.057698294 27.954741
0.17943192 -0.05 -0.057494351 28.102591
0.17551457 -0.05 -0.057280202 28.231299
0.17165434 -0.05 -0.057056073 28.338472
0.16785046 -0.05 -0.056822144 28.427858
0.16410216 -0.05 -0.056578569 28.514462
0.16040869 -0.05 -0.056325498 28.61443
0.15676928 -0.05 -0.05606317 28.737257
0.15318322 -0.05 -0.055791717 28.871327
0.14964978 -0.05 -0.055511298 29.015228
0.14616825 -0.05 -0.055222078 29.169223
0.14273792 -0.05 -0.054924165 29.335251
0.13935811 -0.05 -0.054617735 29.518369
0.13602814 -0.05 -0.054302918 29.721047
0.13274733 -0.05 -0.0539799 29.938916
0.12951503 -0.05 -0.053648803 30.166748
0.12633059 -0.05 -0.053309668 30.396589
0.12319338 -0.05 -0.052962694 30.624706
0.12010275 -0.05 -0.052608015 30.849431
0.1170581 -0.05 -0.052245659 31.06753
0.11405884 -0.05 -0.051875714 31.277631
0.11110436 -0.05 -0.051498325 31.479081
0.10819407 -0.05 -0.051113537 31.672242
0.1053274 -0.05 -0.050721452 31.855009
0.10250377 -0.05 -0.050322242 32.029854
0.099722646 -0.05 -0.049915858 32.195837
0.096983476 -0.05 -0.049502365 32.350565
0.09428572 -0.05 -0.049081918 32.496643
0.091628869 -0.05 -0.048654443 32.633509
0.089012407 -0.05 -0.048220014 32.758069
0.086435822 -0.05 -0.047778706 32.875291
0.083898622 -0.05 -0.047330558 32.98261
0.081400322 -0.05 -0.046875618 33.083173
0.078940468 -0.05 -0.04641379 33.174462
0.076518606 -0.05 -0.045945076 33.255925
0.074134268 -0.05 -0.045469555 33.328182
0.071787011 -0.05 -0.044987254 33.392906
0.069476428 -0.05 -0.044498068 33.449222
0.067202106 -0.05 -0.044001962 33.495704
0.064963636 -0.05 -0.043498941 33.533931
0.062760639 -0.05 -0.042988918 33.563739
0.060592742 -0.05 -0.042471814 33.584414
0.058459584 -0.05 -0.041947574 33.595856
0.056360819 -0.05 -0.041416101 33.59862
0.0542961 -0.05 -0.040877367 33.591805
0.052265131 -0.05 -0.040331186 33.578706
0.050267619 -0.05 -0.039777412 33.553473
0.04830326 -0.05 -0.039215986 33.521118
0.046371797 -0.05 -0.038646726 33.479688
0.044472992 -0.05 -0.038069451 33.430797
0.042606647 -0.05 -0.037483887 33.372985
0.04077256 -0.05 -0.036889844 33.304876
0.038970531 -0.05 -0.036287174 33.228218
0.037200422 -0.05 -0.035675593 33.144882
0.035462126 -0.05 -0.035054797 33.052265
0.033755564 -0.05 -0.034424472 32.952192
0.032080678 -0.05 -0.033784303 32.842481
0.030437457 -0.05 -0.033133937 32.725353
0.028825948 -0.05 -0.032472941 32.598619
0.027246216 -0.05 -0.031800934 32.462702
0.025698403 -0.05 -0.031117427 32.319368
0.02418271 -0.05 -0.0304219 32.16568
0.02269939 -0.05 -0.029713839 32.003161
0.021248814 -0.05 -0.02899261 31.831697
0.01983138 -0.05 -0.028257636 31.647701
0.018447651 -0.05 -0.02750818 31.45657
0.017098277 -0.05 -0.026743476 31.248505
0.015783995 -0.05 -0.025962765 31.028635
0.014505737 -0.05 -0.025165187 30.789635
0.013264612 -0.05 -0.02434986 30.532436
0.012061925 -0.05 -0.023515867 30.250401
0.010899207 -0.05 -0.022662186 29.942725
0.0097781873 -0.05 -0.021787727 29.592333
0.008700912 -0.05 -0.020891597 29.19208
0.0076698537 -0.05 -0.019972906 28.735098
0.006687722 -0.05 -0.019030513 28.210076
0.005757559 -0.05 -0.018063627 27.589055
0.004883093 -0.05 -0.017072006 26.850178
0.0040681858 -0.05 -0.016055192 25.954612
0.0033169275 -0.05 -0.015013274 24.875459
0.0026340841 -0.05 -0.013947473 23.577897
0.00202426 -0.05 -0.012859162 22.022448
0.0014918488 -0.05 -0.011750745 20.164275
0.0010408626 -0.05 -0.010626176 17.972803
0.00067447555 -0.05 -0.0094897862 15.42253
0.00039455423 -0.05 -0.0083468422 12.427857
0.00020131267 -0.05 -0.0072033984 9.2033178
9.3385445e-05 -0.05 -0.006065551 5.8048418
0.99672287 -0.05 0.015978513 3.9777563
0.99053093 -0.05 0.01494621 0.32480227
0.98433782 -0.05 0.013920872 0.60437563
0.97814356 -0.05 0.012902471 0.37629495
0.9719482 -0.05 0.011890901 0.42035795
0.96575173 -0.05 0.010886005 0.20077726
0.9595542 -0.05 0.0098877989 0.35085653
0.9533556 -0.05 0.0088962209 0.3050143
0.94715597 -0.05 0.0079111165 0.3415581
0.94095532 -0.05 0.0069324016 0.33786752
0.93475367 -0.05 0.0059600715 0.35190858
0.92855103 -0.05 0.0049940663 0.35728895
0.92234742 -0.05 0.0040343099 0.36628911
0.91614285 -0.05 0.0030807675 0.37334834
0.90993736 -0.05 0.0021332886 0.38238605
0.90373094 -0.05 0.0011918759 0.38926555
0.89752361 -0.05 0.00025649811 0.39886746
0.8913154 -0.05 -0.00067298015 0.40455984
0.8851063 -0.05 -0.0015965725 0.41249066
0.87889632 -0.05 -0.0025142222 0.4213702
0.87268549 -0.05 -0.0034260664 0.43024978
0.86647382 -0.05 -0.0043321726 0.43916439
0.86026131 -0.05 -0.0052325123 0.4488964
0.85404798 -0.05 -0.0061271717 0.45938456
0.84783384 -0.05 -0.0070162131 0.47127333
0.8416189 -0.05 -0.0078996226 0.47992851
0.83540316 -0.05 -0.008777364 0.49077408
0.82918664 -0.05 -0.009649612 0.4998979
0.82296935 -0.05 -0.010516327 0.51028642
0.81675128 -0.05 -0.011377462 0.5269719
0.81053246 -0.05 -0.012233096 0.54867376
0.80431288 -0.05 -0.013083239 0.57313289
0.79809256 -0.05 -0.013927922 0.63568036
0.79187149 -0.05 -0.014767102 0.7391687
0.7856497 -0.05 -0.015600862 0.74411984
0.77942718 -0.05 -0.016429169 0.75275571
0.77320393 -0.05 -0.01725199 0.7497735
0.76697996 -0.05 -0.018069386 0.71780468
0.76075528 -0.05 -0.018881344 0.72523146
0.75452989 -0.05 -0.019687853 0.70887552
0.7483038 -0.05 -0.020488885 0.67677876
0.742077 -0.05 -0.021284424 0.62431113
0.73584951 -0.05 -0.022074456 0.53621076
0.72962131 -0.05 -0.022858945 0.38709098
0.72339241 -0.05 -0.023637925 0.18940328
0.71716284 -0.05 -0.024411425 0.49832921
0.71093256 -0.05 -0.02517927 0.66004816
0.7047016 -0.05 -0.025941512 0.81323909
0.69846995 -0.05 -0.026698117 0.96423417
0.69223761 -0.05 -0.027448988 1.1140522
0.6860046 -0.05 -0.028194187 1.2669325
0.67977088 -0.05 -0.028933611 1.4215815
0.67353649 -0.05 -0.029667273 1.5803131
0.66730141 -0.05 -0.030395056 1.7431267
0.66106564 -0.05 -0.031116859 1.9114101
0.65482918 -0.05 -0.031832768 2.0897171
0.64859204 -0.05 -0.032542695 2.2784483
0.64235421 -0.05 -0.033246476 2.4747926
0.63611568 -0.05 -0.033944076 2.6772232
0.62987646 -0.05 -0.034635499 2.88591
0.62363655 -0.05 -0.035320607 3.1006975
0.61739594 -0.05 -0.035999314 3.3205024
0.61115463 -0.05 -0.036671619 3.545391
0.60491262 -0.05 -0.037337376 3.7744557
0.59866992 -0.05 -0.037996514 4.0114143
0.59242651 -0.05 -0.038648948 4.2700876
0.58618238 -0.05 -0.039294589 4.5339144
0.57993754 -0.05 -0.039933319 4.8017478
0.573692 -0.05 -0.040564994 5.0732495
0.56744575 -0.05 -0.041189583 5.3503366
0.56119876 -0.05 -0.041806962 5.6326259
0.55495106 -0.05 -0.042416969 5.9186188
0.54870264 -0.05 -0.043019536 6.2092176
0.54245349 -0.05 -0.043614496 6.5051288
0.5362036 -0.05 -0.044201713 6.8060734
0.52995298 -0.05 -0.044781114 7.1120568
0.52370164 -0.05 -0.045352528 7.4222869
0.51744955 -0.05 -0.045915813 7.7378431
0.51119672 -0.05 -0.046470801 8.0599081
0.50494315 -0.05 -0.047017354 8.3873705
0.49868884 -0.05 -0.04755535 8.7195374
0.49243378 -0.05 -0.048084589 9.0559226
0.48617796 -0.05 -0.048604869 9.3996544
0.47992141 -0.05 -0.049116066 9.7690342
0.4736641 -0.05 -0.049618041 10.191211
0.46740603 -0.05 -0.050110542 10.621591
0.46114722 -0.05 -0.050593357 11.044994
0.45488765 -0.05 -0.051066323 11.466452
0.44862734 -0.05 -0.051529257 11.883196
0.44236627 -0.05 -0.051981931 12.301354
0.43610445 -0.05 -0.052424106 12.722335
0.42984189 -0.05 -0.052855571 13.147166
0.42357858 -0.05 -0.053276127 13.574737
0.41731453 -0.05 -0.053685525 14.004119
0.41104974 -0.05 -0.054083487 14.435857
0.40478424 -0.05 -0.054469787 14.871456
0.39851801 -0.05 -0.054844141 15.309639
0.39225104 -0.05 -0.055206238 15.748458
0.38598339 -0.05 -0.055555864 16.189266
0.37971502 -0.05 -0.055892777 16.634124
0.37344597 -0.05 -0.056216581 17.08115
0.36717624 -0.05 -0.056526951 17.528563
0.36090585 -0.05 -0.056823648 17.977701
0.35463481 -0.05 -0.057106333 18.42979
0.34836314 -0.05 -0.05737465 18.884584
0.34209086 -0.05 -0.057628212 19.340604
0.33581798 -0.05 -0.057866688 19.797037
0.32954454 -0.05 -0.058089686 20.254751
0.32327055 -0.05 -0.058296781 20.713741
0.31699604 -0.05 -0.058487584 21.17476
0.31072104 -0.05 -0.058661678 21.635932
0.3044456 -0.05 -0.058818629 21.977006
0.29582974 -0.05 0.06102675 23.024493
0.29019418 -0.05 0.060889331 22.591375
0.28464012 -0.05 0.060739325 22.287409
0.27916641 -0.05 0.06057692 21.988577
0.27377196 -0.05 0.060402357 21.704466
0.26845564 -0.05 0.06021591 21.432479
0.26321636 -0.05 0.060017828 21.173522
0.25805307 -0.05 0.059808336 20.926719
0.25296469 -0.05 0.059587698 20.692367
0.24795019 -0.05 0.059356137 20.469609
0.24300855 -0.05 0.059113817 20.256879
0.23813874 -0.05 0.058860993 20.053144
0.23333978 -0.05 0.058597887 19.857003
0.22861068 -0.05 0.05832474 19.667337
0.22395047 -0.05 0.058041776 19.485882
0.21935819 -0.05 0.057749146 19.311705
0.21483291 -0.05 0.057447094 19.145198
0.2103737 -0.05 0.057135823 18.986812
0.20597965 -0.05 0.056815447 18.834896
0.20164984 -0.05 0.056486211 18.689947
0.19738341 -0.05 0.056148309 18.552054
0.19317947 -0.05 0.055801956 18.421228
0.18903716 -0.05 0.055447336 18.298053
0.18495563 -0.05 0.055084516 18.180637
0.18093405 -0.05 0.05471373 18.069054
0.17697161 -0.05 0.054335153 17.963939
0.17306747 -0.05 0.053948926 17.863825
0.16922084 -0.05 0.053555243 17.770281
0.16543093 -0.05 0.053154246 17.68215
0.16169696 -0.05 0.052746058 17.599611
0.15801819 -0.05 0.052330792 17.521387
0.15439384 -0.05 0.051908658 17.44876
0.15082319 -0.05 0.051479755 17.382098
0.14730551 -0.05 0.051044207 17.320383
0.14384006 -0.05 0.050602149 17.264438
0.14042615 -0.05 0.05015366 17.212731
0.13706309 -0.05 0.049698883 17.165134
0.13375018 -0.05 0.049237919 17.121462
0.13048676 -0.05 0.048770924 17.081934
0.12727215 -0.05 0.048297992 17.047528
0.1241057 -0.05 0.047819134 17.016514
0.12098678 -0.05 0.047334522 16.989815
0.11791475 -0.05 0.046844261 16.968778
0.11488898 -0.05 0.046348353 16.951251
0.11190889 -0.05 0.045846859 16.936663
0.10897386 -0.05 0.045339898 16.924728
0.10608331 -0.05 0.044827487 16.915479
0.10323666 -0.05 0.044309707 16.907204
0.10043332 -0.05 0.043786701 16.903603
0.097672761 -0.05 0.043258397 16.903457
0.094954429 -0.05 0.042724837 16.904744
0.092277774 -0.05 0.04218615 16.90927
0.089642295 -0.05 0.04164224 16.915152
0.08704747 -0.05 0.04109316 16.92066
0.084492787 -0.05 0.040538962 16.931105
0.081977752 -0.05 0.039979661 16.94534
0.079501876 -0.05 0.039415287 16.967001
0.077064714 -0.05 0.038845723 16.990304
0.074665809 -0.05 0.038270949 17.012716
0.072304691 -0.05 0.037691026 17.034444
0.069980917 -0.05 0.037105959 17.058207
0.067694084 -0.05 0.036515627 17.083939
0.065443782 -0.05 0.035919978 17.112817
0.0632296 -0.05 0.035318995 17.147242
0.061051164 -0.05 0.034712579 17.184664
0.058908107 -0.05 0.034100632 17.222543
0.056800069 -0.05 0.033483083 17.260646
0.05472671 -0.05 0.032859821 17.29954
0.052687682 -0.05 0.032230802 17.340919
0.050682698 -0.05 0.031595828 17.387074
0.048711474 -0.05 0.030954741 17.429642
0.046773708 -0.05 0.030307466 17.472807
0.044869149 -0.05 0.029653811 17.515646
0.04299757 -0.05 0.028993586 17.562895
0.041158784 -0.05 0.028326507 17.615794
0.039352597 -0.05 0.027652375 17.674072
0.037578817 -0.05 0.026971035 17.734933
0.035837318 -0.05 0.026282198 17.798931
0.034128007 -0.05 0.025585552 17.860819
0.032450817 -0.05 0.024880783 17.920125
0.030805706 -0.05 0.024167572 17.97916
0.029192677 -0.05 0.023445568 18.044792
0.027611799 -0.05 0.022714338 18.099862
0.02606315 -0.05 0.021973505 18.141848
0.024546895 -0.05 0.021222586 18.187026
0.023063257 -0.05 0.020461071 18.247895
0.021612513 -0.05 0.01968846 18.325618
0.02019506 -0.05 0.018904133 18.376951
0.018811321 -0.05 0.018107531 18.359017
0.017461893 -0.05 0.017297946 18.268999
0.016147456 -0.05 0.016474636 18.107533
0.014868781 -0.05 0.015636879 17.951655
0.013626838 -0.05 0.014783854 17.884168
0.012422771 -0.05 0.013914731 17.975272
0.011257926 -0.05 0.013028653 18.196695
0.010133878 -0.05 0.012124661 18.566911
0.0090524015 -0.05 0.011201745 19.088755
0.0080155802 -0.05 0.010259104 19.828342
0.0070259234 -0.05 0.0092959566 20.58553
0.006086188 -0.05 0.0083112817 21.18914
0.0051994484 -0.05 0.0073044231 21.584311
0.0043694399 -0.05 0.0062753024 21.75832
0.0036000404 -0.05 0.0052236324 21.644267
0.0028953323 -0.05 0.0041496834 21.22445
0.0022600232 -0.05 0.0030548816 20.510026
0.0016986529 -0.05 0.0019408036 19.449027
0.0012155048 -0.05 0.00081004477 17.982565
0.00081441323 -0.05 -0.00033327079 16.099708
0.00049835886 -0.05 -0.0014846747 13.722712
0.00026897481 -0.05 -0.0026388239 10.639521
0.00012620863 -0.05 -0.0037896602 7.5826142
6.8428092e-05 -0.05 -0.0049311532 3.4774437
0.99670309 -0.05 0.016877647 56.533175
0.99047174 -0.05 0.017636631 63.12883
0.98423952 -0.05 0.018388605 63.730957
0.97800648 -0.05 0.019133599 63.317921
0.97177261 -0.05 0.019871719 63.116512
0.96553795 -0.05 0.020603125 62.842887
0.95930251 -0.05 0.021327799 62.580208
0.9530663 -0.05 0.022045804 62.305318
0.94682934 -0.05 0.022757297 62.027023
0.94059165 -0.05 0.023462362 61.743319
0.93435324 -0.05 0.024161004 61.454957
0.92811412 -0.05 0.024853284 61.161646
0.9218743 -0.05 0.025539278 60.863353
0.9156338 -0.05 0.026219023 60.559604
0.90939264 -0.05 0.026892668 60.251924
0.90315082 -0.05 0.027560213 59.940999
0.89690836 -0.05 0.028221689 59.627571
0.89066527 -0.05 0.028877232 59.31312
0.88442157 -0.05 0.029526856 58.997917
0.87817724 -0.05 0.030170505 58.681915
0.87193231 -0.05 0.030808316 58.364637
0.8656868 -0.05 0.031440357 58.04614
0.85944071 -0.05 0.032066601 57.725424
0.85319404 -0.05 0.032687134 57.402039
0.84694682 -0.05 0.033302019 57.07473
0.84069904 -0.05 0.033911242 56.742733
0.83445071 -0.05 0.034514767 56.405569
0.82820185 -0.05 0.03511277 56.06494
0.82195245 -0.05 0.035705211 55.722112
0.81570254 -0.05 0.036292044 55.379086
0.8094521 -0.05 0.036873348 55.03756
0.80320114 -0.05 0.037449133 54.697763
0.79694969 -0.05 0.038019431 54.359925
0.79069773 -0.05 0.038584197 54.02342
0.7844453 -0.05 0.039143517 53.688022
0.77819236 -0.05 0.039697357 53.351919
0.77193895 -0.05 0.040245685 53.011739
0.76568506 -0.05 0.040788562 52.666469
0.75943068 -0.05 0.041325975 52.315283
0.75317585 -0.05 0.041857912 51.959515
0.74692055 -0.05 0.042384347 51.601749
0.74066479 -0.05 0.042905263 51.245165
0.73440858 -0.05 0.043420647 50.891459
0.7281519 -0.05 0.043930463 50.540981
0.72189478 -0.05 0.044434743 50.193339
0.71563721 -0.05 0.04493352 49.847539
0.7093792 -0.05 0.045426616 49.499591
0.70312074 -0.05 0.045914083 49.145923
0.69686185 -0.05 0.046395889 48.783437
0.69060252 -0.05 0.046871938 48.412106
0.68434275 -0.05 0.047342288 48.037271
0.67808256 -0.05 0.04780684 47.664634
0.67182193 -0.05 0.048265605 47.297677
0.66556088 -0.05 0.048718467 46.936342
0.65929939 -0.05 0.049165323 46.578873
0.65303748 -0.05 0.049606261 46.222913
0.64677516 -0.05 0.050041194 45.862233
0.64051241 -0.05 0.050469954 45.490344
0.63424923 -0.05 0.050892511 45.1037
0.62798564 -0.05 0.051308865 44.70658
0.62172164 -0.05 0.05171888 44.308984
0.61545721 -0.05 0.052122471 43.917917
0.60919238 -0.05 0.052519633 43.532783
0.60292713 -0.05 0.052910224 43.152238
0.59666147 -0.05 0.053294172 42.773358
0.59039541 -0.05 0.053671391 42.389481
0.58412893 -0.05 0.054041791 41.990455
0.57786205 -0.05 0.054405257 41.567336
0.57159477 -0.05 0.054761644 41.121526
0.56532708 -0.05 0.055110919 40.668521
0.559059 -0.05 0.05545296 40.220718
0.5527905 -0.05 0.055787605 39.778349
0.54652163 -0.05 0.056114784 39.342476
0.54025236 -0.05 0.056434332 38.911723
0.5339827 -0.05 0.056746112 38.480948
0.52771265 -0.05 0.057050052 38.038505
0.52144221 -0.05 0.05734598 37.566592
0.5151714 -0.05 0.057633755 37.061242
0.50890022 -0.05 0.057913208 36.553862
0.50262866 -0.05 0.058184203 36.04853
0.49635674 -0.05 0.058446614 35.546295
0.49008446 -0.05 0.058700245 35.049157
0.48381181 -0.05 0.058944892 34.552605
0.47753882 -0.05 0.059180433 34.057188
0.47126549 -0.05 0.059406726 33.562643
0.46499183 -0.05 0.059623523 33.068295
0.45871783 -0.05 0.059830611 32.572916
0.45244352 -0.05 0.060027825 32.0764
0.4461689 -0.05 0.060214982 31.579573
0.43989399 -0.05 0.060391858 31.087646
0.43361878 -0.05 0.060558213 30.603665
0.4273433 -0.05 0.060713834 30.130873
0.42106755 -0.05 0.060858524 29.670552
0.41479157 -0.05 0.060992035 29.221223
0.40851534 -0.05 0.061114087 28.786405
0.4022389 -0.05 0.061224458 28.370526
0.39596227 -0.05 0.061322862 27.973444
0.38968545 -0.05 0.06140899 27.591432
0.38340847 -0.05 0.061482628 27.220749
0.37713137 -0.05 0.061543534 26.861483
0.37085413 -0.05 0.061591312 26.511053
0.36457682 -0.05 0.061625641 26.169529
0.35829945 -0.05 0.06164628 25.836418
0.35202204 -0.05 0.061652893 25.512183
0.34574464 -0.05 0.061645125 25.195632
0.33946727 -0.05 0.061622587 24.886912
0.33318998 -0.05 0.061584952 24.585612
0.32691279 -0.05 0.061531829 24.292225
0.32063577 -0.05 0.061462796 24.005235
0.31435895 -0.05 0.061377463 23.725185
0.30808237 -0.05 0.061275416 23.457295
0.30180609 -0.05 0.061156222 23.317759
