# p  FACE_DATA 448
# x y z  p
0.2996403 -0.05 -0.057969562 99444.123
0.29400749 -0.05 -0.058192985 99437.231
0.2884552 -0.05 -0.058398632 99429.725
0.28298233 -0.05 -0.058586763 99422.506
0.27758775 -0.05 -0.058757692 99415.346
0.2722704 -0.05 -0.058911761 99408.348
0.26702919 -0.05 -0.059049291 99401.41
0.26186306 -0.05 -0.059170572 99394.644
0.256771 -0.05 -0.059275937 99387.838
0.25175195 -0.05 -0.059365676 99381.222
0.24680493 -0.05 -0.059440014 99374.71
0.24192893 -0.05 -0.059499275 99368.338
0.23712297 -0.05 -0.059543742 99362.037
0.23238608 -0.05 -0.05957372 99355.772
0.22771731 -0.05 -0.059589494 99349.606
0.22311572 -0.05 -0.059591273 99343.637
0.21858039 -0.05 -0.059579365 99337.62
0.2141104 -0.05 -0.05955403 99331.815
0.20970485 -0.05 -0.059515438 99326.148
0.20536285 -0.05 -0.059463894 99320.55
0.20108354 -0.05 -0.059399649 99315.088
0.19686606 -0.05 -0.059322971 99309.575
0.19270954 -0.05 -0.0592341 99304.187
0.18861316 -0.05 -0.059133156 99299.031
0.1845761 -0.05 -0.059020428 99293.848
0.18059755 -0.05 -0.058896141 99288.89
0.1766767 -0.05 -0.05876049 99283.936
0.17281276 -0.05 -0.058613718 99279.118
0.16900496 -0.05 -0.05845602 99274.335
0.16525253 -0.05 -0.058287564 99269.755
0.16155473 -0.05 -0.058108515 99265.223
0.1579108 -0.05 -0.05791913 99260.7
0.15432003 -0.05 -0.057719552 99256.373
0.15078168 -0.05 -0.057509955 99252.073
0.14729505 -0.05 -0.057290521 99247.929
0.14385945 -0.05 -0.05706137 99243.887
0.14047418 -0.05 -0.056822691 99239.924
0.13713857 -0.05 -0.05657463 99236.153
0.13385195 -0.05 -0.056317382 99232.345
0.13061366 -0.05 -0.056051088 99228.759
0.12742307 -0.05 -0.055775799 99225.343
0.12427954 -0.05 -0.055491726 99221.876
0.12118242 -0.05 -0.055199016 99218.536
0.11813113 -0.05 -0.054897711 99215.381
0.11512506 -0.05 -0.054587909 99212.36
0.11216361 -0.05 -0.054269768 99209.399
0.1092462 -0.05 -0.053943343 99206.757
0.10637225 -0.05 -0.05360875 99204.065
0.1035412 -0.05 -0.053266171 99201.428
0.10075249 -0.05 -0.052915568 99199.156
0.098005591 -0.05 -0.052557019 99196.852
0.095299955 -0.05 -0.052190686 99194.614
0.092635076 -0.05 -0.051816506 99192.768
0.090010438 -0.05 -0.051434567 99190.836
0.087425531 -0.05 -0.051044951 99189.19
0.084879865 -0.05 -0.050647706 99187.455
0.082372953 -0.05 -0.050242893 99185.973
0.079904345 -0.05 -0.049830425 99184.835
0.07747358 -0.05 -0.049410308 99183.949
0.075080196 -0.05 -0.048982636 99183.098
0.072723751 -0.05 -0.048547442 99182.434
0.070403835 -0.05 -0.048104629 99182.115
0.068120034 -0.05 -0.047654173 99181.915
0.065871938 -0.05 -0.047196084 99182.011
0.063659167 -0.05 -0.046730284 99182.489
0.061481349 -0.05 -0.046256703 99183.262
0.059338119 -0.05 -0.04577529 99184.367
0.057229132 -0.05 -0.045285958 99185.847
0.055154036 -0.05 -0.044788683 99187.449
0.053112536 -0.05 -0.044283288 99189.809
0.051104334 -0.05 -0.043769631 99192.371
0.049129125 -0.05 -0.043247659 99195.358
0.047186648 -0.05 -0.042717196 99198.625
0.045276662 -0.05 -0.042178065 99202.52
0.043398965 -0.05 -0.041629998 99207.226
0.041553347 -0.05 -0.041072805 99212.538
0.039739609 -0.05 -0.040506347 99218.46
0.037957607 -0.05 -0.039930341 99225.329
0.036207227 -0.05 -0.039344484 99233.035
0.034488383 -0.05 -0.038748464 99241.819
0.032801012 -0.05 -0.038141967 99251.529
0.031145095 -0.05 -0.037524642 99262.558
0.029520671 -0.05 -0.036896054 99274.894
0.027927798 -0.05 -0.03625582 99288.61
0.026366606 -0.05 -0.035603449 99304.021
0.024837286 -0.05 -0.034938417 99321.16
0.023340082 -0.05 -0.034260206 99340.357
0.021875353 -0.05 -0.033568174 99361.978
0.020443484 -0.05 -0.032861735 99385.942
0.019045023 -0.05 -0.032140143 99413.331
0.017680604 -0.05 -0.031402617 99443.987
0.01635095 -0.05 -0.030648385 99478.873
0.015056975 -0.05 -0.029876567 99518.171
0.01379977 -0.05 -0.029086261 99562.664
0.012580621 -0.05 -0.028276522 99612.531
0.011401039 -0.05 -0.027446298 99668.662
0.01026273 -0.05 -0.026594467 99731.002
0.0091677232 -0.05 -0.025720092 99800.523
0.0081184724 -0.05 -0.024822236 99879.756
0.0071176636 -0.05 -0.023899702 99969.907
0.0061683225 -0.05 -0.022951638 100069.34
0.005274172 -0.05 -0.021977729 100180.57
0.0044390637 -0.05 -0.02097744 100303.22
0.0036670888 -0.05 -0.019950778 100436.14
0.0029630367 -0.05 -0.018898866 100578.2
0.0023315386 -0.05 -0.017822987 100727.3
0.0017770349 -0.05 -0.016725456 100879.23
0.0013036166 -0.05 -0.015610144 101028.72
0.0009145437 -0.05 -0.01448132 101170.52
0.00061178787 -0.05 -0.013344211 101297.97
0.00039568443 -0.05 -0.012204868 101404.53
0.00026499029 -0.05 -0.01106941 101487.41
0.99625309 -0.05 0.030930512 100040.13
0.99008305 -0.05 0.029774406 100041.02
0.98391172 -0.05 0.028625238 100035.45
0.9777391 -0.05 0.027482984 100036.14
0.97156524 -0.05 0.026347537 100033.64
0.96539015 -0.05 0.025218741 100032.77
0.95921385 -0.05 0.024096612 100031.12
0.95303635 -0.05 0.022981089 100029.89
0.94685769 -0.05 0.021872018 100028.43
0.94067789 -0.05 0.020769314 100027.11
0.93449696 -0.05 0.019672974 100025.7
0.92831491 -0.05 0.018582937 100024.35
0.92213177 -0.05 0.017499128 100022.92
0.91594754 -0.05 0.016421513 100021.54
0.90976227 -0.05 0.015349943 100020.08
0.90357595 -0.05 0.014284418 100018.65
0.8973886 -0.05 0.013224909 100017.15
0.89120025 -0.05 0.01217128 100015.65
0.88501089 -0.05 0.011123519 100014.08
0.87882053 -0.05 0.010081681 100012.52
0.87262921 -0.05 0.0090456304 100010.87
0.86643693 -0.05 0.0080152998 100009.24
0.8602437 -0.05 0.0069907178 100007.51
0.85404953 -0.05 0.0059717987 100005.79
0.84785444 -0.05 0.0049584803 100003.96
0.84165844 -0.05 0.0039507765 100002.13
0.83546153 -0.05 0.0029487236 100000.19
0.82926373 -0.05 0.0019521473 99998.225
0.82306504 -0.05 0.00096108789 99996.156
0.81686547 -0.05 -2.440833e-05 99994.038
0.81066503 -0.05 -0.0010044203 99991.815
0.80446373 -0.05 -0.0019789573 99989.536
0.79826157 -0.05 -0.0029480507 99987.103
0.79205856 -0.05 -0.0039116553 99984.604
0.78585472 -0.05 -0.0048698569 99981.956
0.77965003 -0.05 -0.0058226206 99979.242
0.77344451 -0.05 -0.0067699149 99976.358
0.76723815 -0.05 -0.0077117999 99973.388
0.76103098 -0.05 -0.0086482616 99970.267
0.75482299 -0.05 -0.0095792894 99967.049
0.7486142 -0.05 -0.010504856 99963.627
0.74240458 -0.05 -0.011424944 99960.093
0.73619416 -0.05 -0.012339541 99956.381
0.72998292 -0.05 -0.01324861 99952.561
0.72377088 -0.05 -0.014152184 99948.509
0.71755804 -0.05 -0.015050293 99944.316
0.7113444 -0.05 -0.015942763 99939.948
0.70512995 -0.05 -0.016829644 99935.416
0.6989147 -0.05 -0.017710903 99930.631
0.69269865 -0.05 -0.018586445 99925.679
0.68648181 -0.05 -0.019456326 99920.5
0.68026416 -0.05 -0.02032045 99915.183
0.67404571 -0.05 -0.021178826 99909.579
0.66782646 -0.05 -0.022031338 99903.871
0.66160639 -0.05 -0.022877885 99897.951
0.65538552 -0.05 -0.023718552 99891.878
0.64916386 -0.05 -0.024553253 99885.532
0.64294136 -0.05 -0.025381822 99879.08
0.63671805 -0.05 -0.026204227 99872.437
0.63049394 -0.05 -0.027020468 99865.671
0.624269 -0.05 -0.02783041 99858.722
0.61804323 -0.05 -0.028633967 99851.643
0.61181664 -0.05 -0.029431137 99844.443
0.60558922 -0.05 -0.030221775 99837.191
0.59936097 -0.05 -0.031005807 99829.774
0.59313187 -0.05 -0.031783153 99822.323
0.58690193 -0.05 -0.03255372 99814.73
0.58067115 -0.05 -0.033317391 99807.113
0.5744395 -0.05 -0.034074025 99799.411
0.568207 -0.05 -0.034823587 99791.67
0.56197364 -0.05 -0.035565955 99783.914
0.55573941 -0.05 -0.036300969 99776.117
0.54950431 -0.05 -0.037028556 99768.216
0.54326832 -0.05 -0.037748553 99760.327
0.53703145 -0.05 -0.038460823 99752.403
0.5307937 -0.05 -0.039165294 99744.472
0.52455505 -0.05 -0.039861794 99736.546
0.5183155 -0.05 -0.040550182 99728.573
0.51207504 -0.05 -0.041230289 99720.598
0.50583367 -0.05 -0.041901978 99712.555
0.49959139 -0.05 -0.042565125 99704.535
0.49334817 -0.05 -0.043219533 99696.527
0.48710403 -0.05 -0.043864999 99688.579
0.48085897 -0.05 -0.044501398 99680.557
0.47461297 -0.05 -0.045128592 99672.484
0.46836603 -0.05 -0.045746331 99664.405
0.46211814 -0.05 -0.046354399 99656.344
0.4558693 -0.05 -0.046952635 99648.294
0.44961952 -0.05 -0.047540856 99640.28
0.44336876 -0.05 -0.048118835 99632.243
0.43711706 -0.05 -0.048686331 99624.178
0.4308644 -0.05 -0.049243135 99616.059
0.42461076 -0.05 -0.049789047 99607.925
0.41835618 -0.05 -0.050323817 99599.807
0.41210062 -0.05 -0.050847169 99591.734
0.4058441 -0.05 -0.051358876 99583.633
0.39958662 -0.05 -0.051858654 99575.569
0.39332817 -0.05 -0.052346192 99567.447
0.38706877 -0.05 -0.052821275 99559.256
0.38080842 -0.05 -0.053283663 99551.011
0.3745471 -0.05 -0.053732956 99542.866
0.36828485 -0.05 -0.054168833 99534.728
0.36202166 -0.05 -0.054591053 99526.601
0.35575753 -0.05 -0.054999276 99518.403
0.3494925 -0.05 -0.055393147 99510.172
0.34322655 -0.05 -0.055772277 99501.923
0.3369597 -0.05 -0.056136337 99493.621
0.33069198 -0.05 -0.056484934 99485.426
0.3244234 -0.05 -0.056817641 99477.26
0.31815398 -0.05 -0.057134071 99468.937
0.31188373 -0.05 -0.057433804 99460.322
0.30561268 -0.05 -0.057716407 99453.016
0.29459831 -0.05 0.061932377 99514.475
0.28896663 -0.05 0.061682118 99510.662
0.28341669 -0.05 0.061420907 99508.026
0.27794734 -0.05 0.061148908 99505.311
0.27255746 -0.05 0.060866341 99502.763
0.26724594 -0.05 0.060573456 99500.338
0.26201168 -0.05 0.060270484 99498.001
0.25685361 -0.05 0.059957624 99495.846
0.25177068 -0.05 0.059635121 99493.718
0.24676183 -0.05 0.059303179 99491.778
0.24182603 -0.05 0.058961936 99489.951
0.23696226 -0.05 0.058611631 99488.266
0.23216954 -0.05 0.058252465 99486.709
0.22744686 -0.05 0.057884661 99485.232
0.22279325 -0.05 0.057508419 99483.886
0.21820776 -0.05 0.057123875 99482.736
0.21368943 -0.05 0.056731253 99481.605
0.20923734 -0.05 0.056330736 99480.658
0.20485058 -0.05 0.05592242 99479.876
0.20052824 -0.05 0.055506533 99479.2
0.19626944 -0.05 0.055083254 99478.706
0.19207328 -0.05 0.054652775 99478.239
0.1879389 -0.05 0.054215264 99477.946
0.18386546 -0.05 0.053770773 99477.865
0.17985212 -0.05 0.053319518 99477.813
0.17589804 -0.05 0.052861657 99477.987
0.17200242 -0.05 0.052397317 99478.237
0.16816444 -0.05 0.051926673 99478.672
0.16438333 -0.05 0.051449854 99479.208
0.16065829 -0.05 0.050966965 99479.986
0.15698857 -0.05 0.050478105 99480.914
0.15337341 -0.05 0.049983468 99481.928
0.14981206 -0.05 0.049483138 99483.14
0.1463038 -0.05 0.048977226 99484.408
0.1428479 -0.05 0.048465851 99485.884
0.13944366 -0.05 0.047949079 99487.54
0.13609039 -0.05 0.047427039 99489.393
0.13278738 -0.05 0.046899818 99491.462
0.12953396 -0.05 0.046367557 99493.613
0.12632946 -0.05 0.045830338 99496.019
0.12317324 -0.05 0.04528816 99498.633
0.12006466 -0.05 0.044741179 99501.265
0.11700306 -0.05 0.044189491 99504.108
0.11398783 -0.05 0.043633083 99507.208
0.11101837 -0.05 0.043072005 99510.555
0.10809409 -0.05 0.042506363 99514.07
0.10521438 -0.05 0.041936164 99517.967
0.10237868 -0.05 0.041361476 99521.924
0.099586372 -0.05 0.04078243 99526.027
0.096836944 -0.05 0.040198944 99530.463
0.094129844 -0.05 0.039611049 99535.018
0.091464514 -0.05 0.039018862 99539.822
0.088840457 -0.05 0.038422278 99545.13
0.086257149 -0.05 0.03782134 99550.608
0.083714078 -0.05 0.037216089 99556.541
0.081210749 -0.05 0.03660653 99562.531
0.078746673 -0.05 0.035992682 99568.775
0.076321407 -0.05 0.035374422 99575.367
0.073934494 -0.05 0.034751718 99582.38
0.071585465 -0.05 0.034124623 99589.674
0.069273874 -0.05 0.033493133 99597.373
0.066999323 -0.05 0.032857119 99605.606
0.064761402 -0.05 0.032216521 99614.159
0.0625597 -0.05 0.031571314 99623.048
0.060393847 -0.05 0.03092139 99632.4
0.058263477 -0.05 0.030266645 99642.143
0.056168229 -0.05 0.029607001 99652.497
0.054107767 -0.05 0.028942339 99663.465
0.052081747 -0.05 0.02827261 99674.948
0.050089882 -0.05 0.027597608 99687.369
0.048131893 -0.05 0.02691717 99700.187
0.046207478 -0.05 0.026231215 99713.427
0.044316393 -0.05 0.025539548 99727.134
0.042458412 -0.05 0.02484197 99741.9
0.040633355 -0.05 0.024138198 99757.85
0.038841032 -0.05 0.023428028 99774.842
0.037081254 -0.05 0.0227113 99792.66
0.0353539 -0.05 0.021987723 99811.237
0.033658884 -0.05 0.021256984 99830.723
0.031996145 -0.05 0.020518765 99851.626
0.030365648 -0.05 0.01977275 99874.192
0.028767403 -0.05 0.019018584 99898.413
0.027201487 -0.05 0.018255839 99924.261
0.025667987 -0.05 0.017484138 99951.604
0.024167075 -0.05 0.016703003 99980.539
0.022698986 -0.05 0.015911927 100011.14
0.021264005 -0.05 0.015110415 100044.07
0.019862545 -0.05 0.014297858 100079.72
0.018495039 -0.05 0.013473703 100117.82
0.017162095 -0.05 0.012637253 100159.02
0.01586441 -0.05 0.011787784 100203.04
0.014602771 -0.05 0.010924586 100250.82
0.013378161 -0.05 0.010046859 100303.26
0.012191742 -0.05 0.0091537957 100360.84
0.011044877 -0.05 0.0082445648 100422.73
0.0099391597 -0.05 0.0073182416 100488.39
0.0088763838 -0.05 0.0063738525 100558.72
0.0078586494 -0.05 0.0054106347 100634.22
0.0068884807 -0.05 0.0044278601 100715.39
0.0059686548 -0.05 0.0034245619 100801.86
0.0051022582 -0.05 0.0024001458 100893.32
0.0042930271 -0.05 0.0013546083 100988.86
0.0035448446 -0.05 0.00028773988 101087.09
0.0028617867 -0.05 -0.00080010749 101186.17
0.0022485315 -0.05 -0.0019074134 101283.07
0.0017095863 -0.05 -0.003032511 101373.81
0.0012491816 -0.05 -0.0041727195 101452.47
0.0008710686 -0.05 -0.0053238387 101516.91
0.00057813769 -0.05 -0.0064813416 101562.24
0.00037191469 -0.05 -0.0076398533 101582.67
0.00025222585 -0.05 -0.008793318 101577.47
0.00021731847 -0.05 -0.0099357393 101545.79
0.9962153 -0.05 0.031829069 100106.08
0.98997 -0.05 0.032463099 100065.86
0.98372397 -0.05 0.033090106 100052.85
0.97747725 -0.05 0.033710116 100037.29
0.97122986 -0.05 0.034323238 100024.66
0.9649818 -0.05 0.034929631 100012.88
0.9587331 -0.05 0.035529277 100002.26
0.95248375 -0.05 0.036122241 99992.338
0.9462338 -0.05 0.036708679 99983.068
0.93998323 -0.05 0.037288675 99974.255
0.93373208 -0.05 0.037862235 99966.013
0.92748035 -0.05 0.03842942 99958.091
0.92122805 -0.05 0.038990308 99950.596
0.91497518 -0.05 0.039544932 99943.396
0.90872177 -0.05 0.040093446 99936.422
0.90246784 -0.05 0.040635848 99929.775
0.89621338 -0.05 0.041172169 99923.343
0.88995842 -0.05 0.041702545 99917.066
0.88370296 -0.05 0.042226991 99911.015
0.87744699 -0.05 0.04274545 99905.225
0.87119055 -0.05 0.043258061 99899.493
0.86493363 -0.05 0.043764892 99893.972
0.85867625 -0.05 0.044265915 99888.587
0.85241841 -0.05 0.044761217 99883.274
0.84616011 -0.05 0.04525086 99878.051
0.83990139 -0.05 0.045734832 99872.986
0.83364222 -0.05 0.046213096 99868.082
0.82738264 -0.05 0.046685828 99863.081
0.82112263 -0.05 0.047152989 99858.334
0.81486222 -0.05 0.047614532 99853.574
0.80860139 -0.05 0.048070537 99848.95
0.80234016 -0.05 0.048521014 99844.305
0.79607854 -0.05 0.048965994 99839.769
0.78981653 -0.05 0.049405434 99835.308
0.78355415 -0.05 0.049839419 99830.818
0.77729138 -0.05 0.050267916 99826.441
0.77102822 -0.05 0.050690892 99822.084
0.76476471 -0.05 0.051108409 99817.749
0.75850084 -0.05 0.051520453 99813.453
0.7522366 -0.05 0.051927012 99809.213
0.74597202 -0.05 0.052328062 99804.996
0.73970708 -0.05 0.052723585 99800.787
0.73344179 -0.05 0.053113567 99796.614
0.72717617 -0.05 0.053497973 99792.49
0.7209102 -0.05 0.053876836 99788.322
0.7146439 -0.05 0.054250188 99784.134
0.70837726 -0.05 0.054617851 99780.094
0.7021103 -0.05 0.054979878 99775.867
0.69584301 -0.05 0.055336235 99771.81
0.6895754 -0.05 0.055686828 99767.67
0.68330747 -0.05 0.056031715 99763.561
0.67703922 -0.05 0.056370796 99759.462
0.67077066 -0.05 0.056704082 99755.286
0.6645018 -0.05 0.057031457 99751.223
0.65823262 -0.05 0.057352821 99747.162
0.65196313 -0.05 0.057668258 99743.018
0.64569335 -0.05 0.057977683 99738.905
0.63942328 -0.05 0.058280928 99734.845
0.6331529 -0.05 0.058577963 99730.761
0.62688222 -0.05 0.058868788 99726.635
0.62061126 -0.05 0.059153266 99722.582
0.61434002 -0.05 0.059431313 99718.482
0.60806848 -0.05 0.059702926 99714.347
0.60179666 -0.05 0.05996796 99710.274
0.59552458 -0.05 0.060226343 99706.138
0.58925221 -0.05 0.060477991 99702.039
0.58297957 -0.05 0.060722813 99697.866
0.57670667 -0.05 0.060960694 99693.763
0.57043351 -0.05 0.06119149 99689.645
0.56416009 -0.05 0.061415167 99685.48
0.5578864 -0.05 0.061631603 99681.327
0.55161247 -0.05 0.061840638 99677.199
0.5453383 -0.05 0.062042199 99672.999
0.53906389 -0.05 0.062236124 99668.879
0.53278923 -0.05 0.062422274 99664.712
0.52651436 -0.05 0.062600578 99660.55
0.52023926 -0.05 0.062770863 99656.381
0.51396394 -0.05 0.062932991 99652.194
0.50768842 -0.05 0.063086789 99648.039
0.50141269 -0.05 0.063232124 99643.869
0.49513677 -0.05 0.06336887 99639.668
0.48886066 -0.05 0.06349683 99635.485
0.48258437 -0.05 0.063615801 99631.338
0.47630793 -0.05 0.063725661 99627.149
0.47003133 -0.05 0.063826268 99622.932
0.46375458 -0.05 0.063917374 99618.749
0.45747769 -0.05 0.063998765 99614.576
0.45120069 -0.05 0.064070279 99610.417
0.44492358 -0.05 0.064131733 99606.234
0.43864638 -0.05 0.064182901 99602.079
0.43236911 -0.05 0.064223543 99597.952
0.42609177 -0.05 0.064253449 99593.837
0.41981438 -0.05 0.064272421 99589.693
0.41353697 -0.05 0.06428021 99585.572
0.40725957 -0.05 0.06427654 99581.465
0.40098218 -0.05 0.064261185 99577.355
0.39470483 -0.05 0.064233862 99573.316
0.38842755 -0.05 0.064194263 99569.323
0.38215036 -0.05 0.064142171 99565.295
0.37587329 -0.05 0.064077349 99561.265
0.36959635 -0.05 0.063999398 99557.345
0.36331961 -0.05 0.063908 99553.434
0.35704308 -0.05 0.063802914 99549.548
0.35076681 -0.05 0.063683802 99545.702
0.34449082 -0.05 0.063550313 99541.886
0.33821516 -0.05 0.063402058 99538.146
0.33193989 -0.05 0.06323871 99534.387
0.32566502 -0.05 0.06305988 99530.739
0.31939064 -0.05 0.062865146 99527.207
0.31311678 -0.05 0.062654119 99523.926
0.30684351 -0.05 0.062426387 99520.373
0.30057088 -0.05 0.062181516 99515.744
