# wallShearStress  FACE_DATA 448
# x y z  wallShearStress_x wallShearStress_y wallShearStress_z
0.2996403 -0.05 -0.057969562 -7.1466176 1.6861716e-16 -0.28294721
0.29400749 -0.05 -0.058192985 -7.3501394 -1.5867128e-17 -0.27198944
0.2884552 -0.05 -0.058398632 -7.4770342 4.8068224e-17 -0.25767543
0.28298233 -0.05 -0.058586763 -7.60652 -3.5745694e-16 -0.24172448
0.27758775 -0.05 -0.058757692 -7.7341396 3.8917808e-17 -0.2249326
0.2722704 -0.05 -0.058911761 -7.8613446 -3.1849894e-17 -0.20717793
0.26702919 -0.05 -0.059049291 -7.9876955 5.9652195e-17 -0.18856001
0.26186306 -0.05 -0.059170572 -8.1134102 7.7451992e-17 -0.16894752
0.256771 -0.05 -0.059275937 -8.2384252 -1.8001858e-16 -0.14854112
0.25175195 -0.05 -0.059365676 -8.3631584 1.3222933e-16 -0.12715507
0.24680493 -0.05 -0.059440014 -8.4864785 -6.1106139e-17 -0.10540474
0.24192893 -0.05 -0.059499275 -8.6086186 6.1808841e-17 -0.08327874
0.23712297 -0.05 -0.059543742 -8.7292018 2.5490135e-17 -0.058675919
0.23238608 -0.05 -0.05957372 -8.8484687 -1.4221304e-17 -0.031599184
0.22771731 -0.05 -0.059589494 -8.9667672 -9.2713863e-19 -0.0045161052
0.22311572 -0.05 -0.059591273 -9.0835629 6.4051898e-18 0.024181263
0.21858039 -0.05 -0.059579365 -9.1993994 9.0298267e-20 0.054109613
0.2141104 -0.05 -0.05955403 -9.3149514 3.9076735e-17 0.082085984
0.20970485 -0.05 -0.059515438 -9.4288395 1.8138594e-17 0.11148367
0.20536285 -0.05 -0.059463894 -9.5417221 -1.8006282e-17 0.14201869
0.20108354 -0.05 -0.059399649 -9.6536104 1.0936155e-16 0.17394062
0.19686606 -0.05 -0.059322971 -9.764818 1.0918796e-16 0.20726679
0.19270954 -0.05 -0.0592341 -9.8756706 -2.9214672e-17 0.241878
0.18861316 -0.05 -0.059133156 -9.9849881 8.2148038e-17 0.27752847
0.1845761 -0.05 -0.059020428 -10.093283 -1.6057041e-16 0.31404145
0.18059755 -0.05 -0.058896141 -10.200899 -3.3670244e-16 0.35184686
0.1766767 -0.05 -0.05876049 -10.307306 -1.07367e-16 0.39053704
0.17281276 -0.05 -0.058613718 -10.413157 -1.7521976e-16 0.43046666
0.16900496 -0.05 -0.05845602 -10.517945 -1.1256425e-16 0.47147571
0.16525253 -0.05 -0.058287564 -10.621416 2.6842805e-16 0.51374969
0.16155473 -0.05 -0.058108515 -10.723086 1.2603028e-16 0.55696487
0.1579108 -0.05 -0.05791913 -10.823857 -2.2928264e-16 0.60139831
0.15432003 -0.05 -0.057719552 -10.92314 2.1224059e-16 0.64713499
0.15078168 -0.05 -0.057509955 -11.020757 2.4138106e-17 0.69392171
0.14729505 -0.05 -0.057290521 -11.117114 1.7657145e-16 0.74210046
0.14385945 -0.05 -0.05706137 -11.211771 8.4213919e-17 0.7914223
0.14047418 -0.05 -0.056822691 -11.30518 -2.1377383e-16 0.84200175
0.13713857 -0.05 -0.05657463 -11.39718 3.0423029e-16 0.8938236
0.13385195 -0.05 -0.056317382 -11.488186 1.82557e-16 0.94685986
0.13061366 -0.05 -0.056051088 -11.578379 -3.724239e-17 1.0015847
0.12742307 -0.05 -0.055775799 -11.666606 -1.1714249e-16 1.0573937
0.12427954 -0.05 -0.055491726 -11.753782 -8.6660146e-17 1.1144819
0.12118242 -0.05 -0.055199016 -11.840155 -5.8729979e-17 1.1734007
0.11813113 -0.05 -0.054897711 -11.924467 3.6972819e-17 1.2337595
0.11512506 -0.05 -0.054587909 -12.006664 -3.485083e-16 1.2954191
0.11216361 -0.05 -0.054269768 -12.087153 -1.5586102e-16 1.3586264
0.1092462 -0.05 -0.053943343 -12.165173 2.3960092e-16 1.4233395
0.10637225 -0.05 -0.05360875 -12.240868 -2.7533103e-16 1.4891693
0.1035412 -0.05 -0.053266171 -12.315683 -3.8198135e-16 1.5571807
0.10075249 -0.05 -0.052915568 -12.387958 -2.2067798e-16 1.6268913
0.098005591 -0.05 -0.052557019 -12.457998 -1.6521935e-16 1.6978388
0.095299955 -0.05 -0.052190686 -12.527185 -1.9143816e-16 1.7711449
0.092635076 -0.05 -0.051816506 -12.593385 -1.8146769e-16 1.8461665
0.090010438 -0.05 -0.051434567 -12.65658 2.4405821e-16 1.9225254
0.087425531 -0.05 -0.051044951 -12.717694 8.7561031e-16 2.0011194
0.084879865 -0.05 -0.050647706 -12.776002 -3.3936959e-17 2.0814708
0.082372953 -0.05 -0.050242893 -12.83172 -3.3164862e-16 2.1645817
0.079904345 -0.05 -0.049830425 -12.882522 5.2358284e-16 2.2494328
0.07747358 -0.05 -0.049410308 -12.92852 -1.0951856e-16 2.335796
0.075080196 -0.05 -0.048982636 -12.971174 -2.2063872e-17 2.4243024
0.072723751 -0.05 -0.048547442 -13.011142 -3.1532665e-16 2.5158055
0.070403835 -0.05 -0.048104629 -13.047489 6.2002937e-18 2.6097999
0.068120034 -0.05 -0.047654173 -13.080757 -1.2609401e-15 2.7063708
0.065871938 -0.05 -0.047196084 -13.112224 7.0084238e-16 2.8067176
0.063659167 -0.05 -0.046730284 -13.140848 -6.6401623e-16 2.9101111
0.061481349 -0.05 -0.046256703 -13.167132 -1.4578646e-16 3.0169171
0.059338119 -0.05 -0.04577529 -13.192919 -7.3225098e-16 3.1277976
0.057229132 -0.05 -0.045285958 -13.219078 -7.5135593e-16 3.2428562
0.055154036 -0.05 -0.044788683 -13.24342 2.3440106e-16 3.3626511
0.053112536 -0.05 -0.044283288 -13.264532 5.5559348e-16 3.487213
0.051104334 -0.05 -0.043769631 -13.280644 1.542854e-16 3.615808
0.049129125 -0.05 -0.043247659 -13.29233 -2.8902055e-16 3.7504235
0.047186648 -0.05 -0.042717196 -13.296848 4.8959987e-16 3.8912696
0.045276662 -0.05 -0.042178065 -13.296648 6.8788355e-16 4.0398925
0.043398965 -0.05 -0.041629998 -13.291694 5.5041145e-16 4.1958725
0.041553347 -0.05 -0.041072805 -13.286669 5.0280354e-16 4.3608221
0.039739609 -0.05 -0.040506347 -13.285889 -1.2365075e-15 4.5370519
0.037957607 -0.05 -0.039930341 -13.289028 3.1790176e-17 4.7247648
0.036207227 -0.05 -0.039344484 -13.295094 -8.3860681e-16 4.9239718
0.034488383 -0.05 -0.038748464 -13.297585 -8.6237933e-16 5.1340233
0.032801012 -0.05 -0.038141967 -13.293254 3.9610081e-16 5.3554941
0.031145095 -0.05 -0.037524642 -13.278312 -4.4064384e-16 5.5887616
0.029520671 -0.05 -0.036896054 -13.246355 -1.0456436e-15 5.833093
0.027927798 -0.05 -0.03625582 -13.19292 -1.1655131e-15 6.0898907
0.026366606 -0.05 -0.035603449 -13.112863 1.3208969e-16 6.359115
0.024837286 -0.05 -0.034938417 -13.00276 2.6623842e-16 6.6416089
0.023340082 -0.05 -0.034260206 -12.862679 2.3460092e-17 6.9396462
0.021875353 -0.05 -0.033568174 -12.692686 -8.0582236e-16 7.2534039
0.020443484 -0.05 -0.032861735 -12.494581 -6.2486327e-16 7.5846845
0.019045023 -0.05 -0.032140143 -12.275111 1.1669509e-17 7.9318874
0.017680604 -0.05 -0.031402617 -12.040185 8.1411487e-17 8.2916284
0.01635095 -0.05 -0.030648385 -11.802553 8.925177e-16 8.6618834
0.015056975 -0.05 -0.029876567 -11.559167 -2.6000812e-16 9.0368054
0.01379977 -0.05 -0.029086261 -11.298254 6.5929776e-16 9.4088151
0.012580621 -0.05 -0.028276522 -11.001247 -4.7694255e-16 9.7674177
0.011401039 -0.05 -0.027446298 -10.655677 -1.1465541e-15 10.100184
0.01026273 -0.05 -0.026594467 -10.250592 9.3193413e-17 10.396871
0.0091677232 -0.05 -0.025720092 -9.7784705 3.6652799e-17 10.649181
0.0081184724 -0.05 -0.024822236 -9.2251984 -4.7909874e-16 10.840599
0.0071176636 -0.05 -0.023899702 -8.5847182 -2.2806443e-16 10.941433
0.0061683225 -0.05 -0.022951638 -7.8618899 1.1144294e-16 10.94073
0.005274172 -0.05 -0.021977729 -7.0709256 2.7812751e-17 10.820493
0.0044390637 -0.05 -0.02097744 -6.2148908 2.056251e-16 10.555592
0.0036670888 -0.05 -0.019950778 -5.3173043 3.6951102e-16 10.129206
0.0029630367 -0.05 -0.018898866 -4.4056101 -1.4946102e-16 9.5311255
0.0023315386 -0.05 -0.017822987 -3.5083199 -1.7425964e-16 8.754953
0.0017770349 -0.05 -0.016725456 -2.6572984 -1.1600869e-16 7.809914
0.0013036166 -0.05 -0.015610144 -1.8838719 -6.8826407e-17 6.7265898
0.0009145437 -0.05 -0.01448132 -1.2209168 -1.3025586e-17 5.5499248
0.00061178787 -0.05 -0.013344211 -0.73406441 3.1750404e-17 4.3369345
0.00039568443 -0.05 -0.012204868 -0.41965838 -6.7773738e-17 3.1383739
0.00026499029 -0.05 -0.01106941 -0.23325099 5.9100107e-17 2.006096
0.99625309 -0.05 0.030930512 -0.023823517 8.0559484e-16 -0.19289871
0.99008305 -0.05 0.029774406 0.010866531 1.2249636e-16 -0.00034756134
0.98391172 -0.05 0.028625238 0.016280678 -1.1050455e-15 0.0026178467
0.9777391 -0.05 0.027482984 0.0058353719 2.4863724e-17 0.00053972855
0.97156524 -0.05 0.026347537 0.011105291 5.9926194e-16 0.0014979164
0.96539015 -0.05 0.025218741 0.0084045797 3.9937222e-16 0.00094048497
0.95921385 -0.05 0.024096612 0.0097005343 -1.9182919e-16 0.0011979742
0.95303635 -0.05 0.022981089 0.009162047 -8.5227401e-16 0.0010824501
0.94685769 -0.05 0.021872018 0.009735965 -8.9090051e-16 0.0011203245
0.94067789 -0.05 0.020769314 0.010573038 -9.1446501e-17 0.0010637499
0.93449696 -0.05 0.019672974 0.01156132 -7.3567673e-16 0.0013314649
0.92831491 -0.05 0.018582937 0.011610195 2.8140981e-16 0.0014283323
0.92213177 -0.05 0.017499128 0.011578126 -7.6433185e-16 0.0015020219
0.91594754 -0.05 0.016421513 0.010773726 2.2295972e-16 0.0013387594
0.90976227 -0.05 0.015349943 0.010181929 -4.8104757e-17 0.0012468631
0.90357595 -0.05 0.014284418 0.0092936838 -1.045458e-16 0.0010415934
0.8973886 -0.05 0.013224909 0.0084623511 1.101427e-15 0.00085814716
0.89120025 -0.05 0.01217128 0.0071208611 4.6559901e-16 0.0006082938
0.88501089 -0.05 0.011123519 0.0053854105 2.7567295e-16 0.00031621417
0.87882053 -0.05 0.010081681 0.003235391 7.8386053e-17 -5.6658051e-05
0.87262921 -0.05 0.0090456304 0.00058633265 -5.8105623e-16 -0.00050004985
0.86643693 -0.05 0.0080152998 -0.0026706533 3.8899347e-16 -0.00099645583
0.8602437 -0.05 0.0069907178 -0.0062944711 6.3329819e-16 -0.0015391111
0.85404953 -0.05 0.0059717987 -0.0099676817 -6.1041822e-17 -0.002150096
0.84785444 -0.05 0.0049584803 -0.014149003 -5.5971587e-16 -0.0028258078
0.84165844 -0.05 0.0039507765 -0.019023968 -4.0977282e-16 -0.0036071376
0.83546153 -0.05 0.0029487236 -0.02457897 -3.7659376e-17 -0.0044807997
0.82926373 -0.05 0.0019521473 -0.030914301 7.7565667e-16 -0.0054733689
0.82306504 -0.05 0.00096108789 -0.038145485 -6.1019545e-16 -0.0065923627
0.81686547 -0.05 -2.440833e-05 -0.046206535 6.6006728e-16 -0.0078225086
0.81066503 -0.05 -0.0010044203 -0.055260138 6.3240792e-16 -0.0091855843
0.80446373 -0.05 -0.0019789573 -0.065201436 -8.2364455e-17 -0.010674641
0.79826157 -0.05 -0.0029480507 -0.076670614 -1.3668107e-15 -0.012368055
0.79205856 -0.05 -0.0039116553 -0.08968083 -5.2907343e-16 -0.014259717
0.78585472 -0.05 -0.0048698569 -0.10436306 1.3594812e-15 -0.016373902
0.77965003 -0.05 -0.0058226206 -0.12057705 -9.5711333e-16 -0.018705505
0.77344451 -0.05 -0.0067699149 -0.13849383 -1.0910776e-15 -0.021319411
0.76723815 -0.05 -0.0077117999 -0.15872145 -9.6817965e-16 -0.024186534
0.76103098 -0.05 -0.0086482616 -0.18105805 4.1275346e-16 -0.027316897
0.75482299 -0.05 -0.0095792894 -0.20516036 6.3419417e-16 -0.030693448
0.7486142 -0.05 -0.010504856 -0.23137825 1.0040435e-15 -0.034341712
0.74240458 -0.05 -0.011424944 -0.25955283 -2.5620917e-17 -0.038206378
0.73619416 -0.05 -0.012339541 -0.28983773 1.5433856e-16 -0.042322446
0.72998292 -0.05 -0.01324861 -0.3220917 2.3290845e-16 -0.046682623
0.72377088 -0.05 -0.014152184 -0.35663553 -8.7560796e-16 -0.051323487
0.71755804 -0.05 -0.015050293 -0.39348027 -3.6607971e-16 -0.056200298
0.7113444 -0.05 -0.015942763 -0.43260179 7.4866224e-16 -0.061336185
0.70512995 -0.05 -0.016829644 -0.47393164 -3.7548017e-16 -0.066742765
0.6989147 -0.05 -0.017710903 -0.51818097 4.2684017e-16 -0.072488783
0.69269865 -0.05 -0.018586445 -0.56462542 6.6127387e-16 -0.078423886
0.68648181 -0.05 -0.019456326 -0.61373627 -1.6610204e-16 -0.084640414
0.68026416 -0.05 -0.02032045 -0.66524726 4.1807882e-16 -0.091097794
0.67404571 -0.05 -0.021178826 -0.71972648 -1.372614e-16 -0.097872082
0.66782646 -0.05 -0.022031338 -0.77676797 5.1791733e-16 -0.10484605
0.66160639 -0.05 -0.022877885 -0.83615598 -5.7534143e-16 -0.11205766
0.65538552 -0.05 -0.023718552 -0.89805088 -5.7733568e-16 -0.11950395
0.64916386 -0.05 -0.024553253 -0.96292099 8.8819692e-16 -0.12721319
0.64294136 -0.05 -0.025381822 -1.0301223 2.1714398e-17 -0.13505738
0.63671805 -0.05 -0.026204227 -1.0997095 -6.7606279e-17 -0.14311366
0.63049394 -0.05 -0.027020468 -1.1717844 -6.1785955e-17 -0.15139875
0.624269 -0.05 -0.02783041 -1.2465102 7.1468432e-16 -0.1598724
0.61804323 -0.05 -0.028633967 -1.324827 8.4781794e-16 -0.16847828
0.61181664 -0.05 -0.029431137 -1.4065511 3.8883861e-16 -0.17734089
0.60558922 -0.05 -0.030221775 -1.4908749 1.0687721e-15 -0.18640225
0.59936097 -0.05 -0.031005807 -1.5777225 2.8438946e-16 -0.19563395
0.59313187 -0.05 -0.031783153 -1.6669101 5.8269674e-17 -0.20492341
0.58690193 -0.05 -0.03255372 -1.7587271 -8.8256569e-16 -0.21432859
0.58067115 -0.05 -0.033317391 -1.8536031 5.728394e-16 -0.22384439
0.5744395 -0.05 -0.034074025 -1.9511151 1.3453722e-17 -0.23345288
0.568207 -0.05 -0.034823587 -2.0508825 -2.760952e-16 -0.24305673
0.56197364 -0.05 -0.035565955 -2.1521596 -8.4332414e-18 -0.25254348
0.55573941 -0.05 -0.036300969 -2.2546122 7.1318251e-17 -0.26188267
0.54950431 -0.05 -0.037028556 -2.3585246 7.6408847e-16 -0.27108419
0.54326832 -0.05 -0.037748553 -2.4636956 -8.7536147e-17 -0.28009641
0.53703145 -0.05 -0.038460823 -2.5695384 -1.0456467e-17 -0.28891671
0.5307937 -0.05 -0.039165294 -2.6762599 -1.2478835e-15 -0.29750744
0.52455505 -0.05 -0.039861794 -2.7835652 -8.636701e-16 -0.30582442
0.5183155 -0.05 -0.040550182 -2.8916392 5.4392025e-16 -0.31387478
0.51207504 -0.05 -0.041230289 -3.0006626 -1.2298455e-15 -0.32164739
0.50583367 -0.05 -0.041901978 -3.1107026 -7.779952e-16 -0.32918145
0.49959139 -0.05 -0.042565125 -3.2217702 2.6036485e-16 -0.33642264
0.49334817 -0.05 -0.043219533 -3.3333251 8.8361441e-16 -0.34331865
0.48710403 -0.05 -0.043864999 -3.4452211 5.0011634e-16 -0.34983977
0.48085897 -0.05 -0.044501398 -3.5578199 1.7703384e-16 -0.3560461
0.47461297 -0.05 -0.045128592 -3.6717853 2.277665e-16 -0.36188114
0.46836603 -0.05 -0.045746331 -3.7868688 3.8745746e-18 -0.36735569
0.46211814 -0.05 -0.046354399 -3.9026596 8.0147161e-16 -0.37243505
0.4558693 -0.05 -0.046952635 -4.0191049 1.6632184e-16 -0.37711138
0.44961952 -0.05 -0.047540856 -4.1361208 -3.3997045e-17 -0.38132095
0.44336876 -0.05 -0.048118835 -4.2538696 -6.2649852e-17 -0.38505758
0.43711706 -0.05 -0.048686331 -4.3726242 -6.6361672e-16 -0.38831228
0.4308644 -0.05 -0.049243135 -4.4925636 7.6828623e-17 -0.39112193
0.42461076 -0.05 -0.049789047 -4.6136658 -9.8294897e-17 -0.39343992
0.41835618 -0.05 -0.050323817 -4.7356878 -2.0351072e-16 -0.39520139
0.41210062 -0.05 -0.050847169 -4.8583649 3.4841815e-16 -0.39638707
0.4058441 -0.05 -0.051358876 -4.9818226 3.0907186e-16 -0.396992
0.39958662 -0.05 -0.051858654 -5.1061313 -3.0463523e-16 -0.39691081
0.39332817 -0.05 -0.052346192 -5.2312687 4.7745551e-16 -0.39621156
0.38706877 -0.05 -0.052821275 -5.3578428 5.7890263e-16 -0.39491077
0.38080842 -0.05 -0.053283663 -5.4860059 -2.8131978e-16 -0.39292205
0.3745471 -0.05 -0.053732956 -5.6149894 3.3361196e-16 -0.39010355
0.36828485 -0.05 -0.054168833 -5.7443477 -2.7315443e-16 -0.3865845
0.36202166 -0.05 -0.054591053 -5.8746967 2.9851135e-16 -0.38224612
0.35575753 -0.05 -0.054999276 -6.0063293 1.2145097e-16 -0.37706814
0.3494925 -0.05 -0.055393147 -6.1395185 -1.2447668e-16 -0.37099903
0.34322655 -0.05 -0.055772277 -6.2739753 2.2180239e-16 -0.36402635
0.3369597 -0.05 -0.056136337 -6.4095059 2.7968073e-16 -0.35613246
0.33069198 -0.05 -0.056484934 -6.5457529 -6.0051611e-16 -0.34713372
0.3244234 -0.05 -0.056817641 -6.682475 2.8270067e-16 -0.33709019
0.31815398 -0.05 -0.057134071 -6.8211991 1.0121598e-16 -0.32604575
0.31188373 -0.05 -0.057433804 -6.9617845 1.0097929e-16 -0.31416215
0.30561268 -0.05 -0.057716407 -7.0346058 2.4809756e-16 -0.29760865
0.29459831 -0.05 0.061932377 -7.1234451 -1.3171792e-16 -0.3117105
0.28896663 -0.05 0.061682118 -7.0348747 2.382218e-17 -0.32589569
0.28341669 -0.05 0.061420907 -7.0224286 -1.0239783e-16 -0.34390105
0.27794734 -0.05 0.061148908 -7.0029756 1.6255843e-16 -0.36182839
0.27255746 -0.05 0.060866341 -6.9867392 2.5824944e-16 -0.37988291
0.26724594 -0.05 0.060573456 -6.9715625 -2.5194264e-16 -0.39816234
0.26201168 -0.05 0.060270484 -6.9580404 2.5164528e-17 -0.4165869
0.25685361 -0.05 0.059957624 -6.9459774 3.8852299e-17 -0.43530825
0.25177068 -0.05 0.059635121 -6.9354616 3.3226943e-16 -0.45413092
0.24676183 -0.05 0.059303179 -6.9265913 1.7941479e-16 -0.47338416
0.24182603 -0.05 0.058961936 -6.918722 -1.08209e-16 -0.49278323
0.23696226 -0.05 0.058611631 -6.912169 -1.0588203e-16 -0.51244496
0.23216954 -0.05 0.058252465 -6.9067581 -3.202202e-16 -0.532328
0.22744686 -0.05 0.057884661 -6.9025495 -3.4439847e-16 -0.55246092
0.22279325 -0.05 0.057508419 -6.8995455 -3.1421574e-16 -0.57293851
0.21820776 -0.05 0.057123875 -6.8976251 -1.8024766e-17 -0.59378666
0.21368943 -0.05 0.056731253 -6.8969578 -3.7233907e-16 -0.61482796
0.20923734 -0.05 0.056330736 -6.8978246 -2.067697e-16 -0.63646894
0.20485058 -0.05 0.05592242 -6.8992764 5.9388357e-16 -0.65835705
0.20052824 -0.05 0.055506533 -6.9016503 2.3296641e-17 -0.68052228
0.19626944 -0.05 0.055083254 -6.9050462 -1.3873287e-16 -0.70308066
0.19207328 -0.05 0.054652775 -6.9096564 4.4935442e-16 -0.7259796
0.1879389 -0.05 0.054215264 -6.9157827 -2.4463167e-16 -0.74949406
0.18386546 -0.05 0.053770773 -6.9224421 -1.1020908e-16 -0.77338097
0.17985212 -0.05 0.053319518 -6.9301252 5.7768776e-17 -0.79757631
0.17589804 -0.05 0.052861657 -6.9392492 4.2825302e-16 -0.82243516
0.17200242 -0.05 0.052397317 -6.9492465 2.6003869e-17 -0.84762896
0.16816444 -0.05 0.051926673 -6.9606935 -8.6094018e-17 -0.87344776
0.16438333 -0.05 0.051449854 -6.9730721 -5.1400937e-16 -0.89975213
0.16065829 -0.05 0.050966965 -6.9862687 -8.5785226e-17 -0.92667912
0.15698857 -0.05 0.050478105 -6.9996799 3.9944079e-16 -0.95392831
0.15337341 -0.05 0.049983468 -7.0139608 -1.7615982e-17 -0.98175046
0.14981206 -0.05 0.049483138 -7.0290203 2.7642577e-16 -1.010251
0.1463038 -0.05 0.048977226 -7.0448497 -6.5057868e-17 -1.0392974
0.1428479 -0.05 0.048465851 -7.0618625 4.1514576e-16 -1.0691619
0.13944366 -0.05 0.047949079 -7.0791774 3.3380358e-16 -1.0995425
0.13609039 -0.05 0.047427039 -7.096915 1.5554983e-16 -1.130529
0.13278738 -0.05 0.046899818 -7.1150113 -2.7458969e-16 -1.1621338
0.12953396 -0.05 0.046367557 -7.1338685 -1.0911171e-16 -1.1944111
0.12632946 -0.05 0.045830338 -7.1537812 -3.3531674e-16 -1.2276999
0.12317324 -0.05 0.04528816 -7.1740096 1.5852227e-16 -1.2615867
0.12006466 -0.05 0.044741179 -7.1956686 -9.6189094e-17 -1.2963634
0.11700306 -0.05 0.044189491 -7.2189293 -4.1226087e-16 -1.332372
0.11398783 -0.05 0.043633083 -7.2420729 -1.6426466e-16 -1.3690911
0.11101837 -0.05 0.043072005 -7.2644895 1.1249745e-16 -1.4063707
0.10809409 -0.05 0.042506363 -7.2862454 -6.6091862e-17 -1.44437
0.10521438 -0.05 0.041936164 -7.3072256 6.3216956e-16 -1.4830993
0.10237868 -0.05 0.041361476 -7.3275634 -1.706795e-16 -1.5223422
0.099586372 -0.05 0.04078243 -7.3492943 -1.0302745e-15 -1.5631414
0.096836944 -0.05 0.040198944 -7.3716041 -1.8272729e-16 -1.6051878
0.094129844 -0.05 0.039611049 -7.3942274 -1.6346807e-16 -1.6481274
0.091464514 -0.05 0.039018862 -7.4180262 3.2724404e-16 -1.6926789
0.088840457 -0.05 0.038422278 -7.4413173 6.2839178e-16 -1.7382537
0.086257149 -0.05 0.03782134 -7.4636955 -2.0227627e-16 -1.7844925
0.083714078 -0.05 0.037216089 -7.4862544 -2.4062635e-16 -1.8320352
0.081210749 -0.05 0.03660653 -7.5083624 4.7590699e-16 -1.8805755
0.078746673 -0.05 0.035992682 -7.5313827 8.4649274e-16 -1.9312377
0.076321407 -0.05 0.035374422 -7.553011 -4.0608536e-16 -1.9830512
0.073934494 -0.05 0.034751718 -7.5724712 -1.7399755e-16 -2.0355407
0.071585465 -0.05 0.034124623 -7.5901615 5.2853098e-17 -2.0890207
0.069273874 -0.05 0.033493133 -7.6064506 -6.5973503e-17 -2.1441203
0.066999323 -0.05 0.032857119 -7.6211095 9.8479964e-17 -2.2004651
0.064761402 -0.05 0.032216521 -7.634897 3.8527917e-16 -2.2582735
0.0625597 -0.05 0.031571314 -7.6486969 -2.0641844e-16 -2.3183331
0.060393847 -0.05 0.03092139 -7.6618796 -1.0138158e-16 -2.3802788
0.058263477 -0.05 0.030266645 -7.6738985 6.4203367e-17 -2.4443862
0.056168229 -0.05 0.029607001 -7.6850794 -2.2850329e-16 -2.5105076
0.054107767 -0.05 0.028942339 -7.6942956 3.0614122e-16 -2.5782648
0.052081747 -0.05 0.02827261 -7.7013413 5.1972383e-16 -2.6480457
0.050089882 -0.05 0.027597608 -7.7048737 1.3831621e-16 -2.7192611
0.048131893 -0.05 0.02691717 -7.7027451 -1.1685056e-16 -2.7911162
0.046207478 -0.05 0.026231215 -7.6985153 -1.4984128e-16 -2.8665874
0.044316393 -0.05 0.025539548 -7.6916883 -2.1641387e-16 -2.9455284
0.042458412 -0.05 0.02484197 -7.6796301 1.7422323e-16 -3.0261276
0.040633355 -0.05 0.024138198 -7.6574197 2.9813235e-16 -3.1063909
0.038841032 -0.05 0.023428028 -7.6270363 5.0670322e-16 -3.1870562
0.037081254 -0.05 0.0227113 -7.5922419 -6.1167981e-16 -3.2704098
0.0353539 -0.05 0.021987723 -7.5575871 4.4839953e-16 -3.358672
0.033658884 -0.05 0.021256984 -7.5269919 -6.7948276e-17 -3.4533931
0.031996145 -0.05 0.020518765 -7.4990878 6.3606683e-16 -3.5540066
0.030365648 -0.05 0.01977275 -7.4628435 -5.6131601e-16 -3.6552413
0.028767403 -0.05 0.019018584 -7.4117044 8.275174e-16 -3.7556687
0.027201487 -0.05 0.018255839 -7.3405153 2.5000742e-16 -3.8551031
0.025667987 -0.05 0.017484138 -7.2442218 -7.5233088e-16 -3.9548718
0.024167075 -0.05 0.016703003 -7.1191068 -5.0381486e-17 -4.0572666
0.022698986 -0.05 0.015911927 -6.9763595 -5.6845868e-16 -4.1691613
0.021264005 -0.05 0.015110415 -6.8270833 -1.6232332e-16 -4.2930517
0.019862545 -0.05 0.014297858 -6.6738028 -9.9706636e-16 -4.4315841
0.018495039 -0.05 0.013473703 -6.5020871 -1.0755583e-15 -4.5845667
0.017162095 -0.05 0.012637253 -6.3158966 -1.5248981e-16 -4.7575573
0.01586441 -0.05 0.011787784 -6.1091573 -8.2167703e-17 -4.9464837
0.014602771 -0.05 0.010924586 -5.8964073 3.0952131e-16 -5.151662
0.013378161 -0.05 0.010046859 -5.7025811 7.1031808e-17 -5.3637745
0.012191742 -0.05 0.0091537957 -5.5660829 -1.4200877e-16 -5.5873105
0.011044877 -0.05 0.0082445648 -5.4707108 -1.2583406e-17 -5.8155248
0.0099391597 -0.05 0.0073182416 -5.3529789 3.7449122e-16 -6.0187223
0.0088763838 -0.05 0.0063738525 -5.1809468 4.9725287e-16 -6.1687403
0.0078586494 -0.05 0.0054106347 -4.9266321 -1.1357149e-16 -6.2508376
0.0068884807 -0.05 0.0044278601 -4.5878865 4.9039929e-16 -6.2541692
0.0059686548 -0.05 0.0034245619 -4.1761585 -1.8889363e-16 -6.1603774
0.0051022582 -0.05 0.0024001458 -3.7102344 4.2176173e-17 -5.9608309
0.0042930271 -0.05 0.0013546083 -3.2034501 -1.0118201e-16 -5.6494348
0.0035448446 -0.05 0.00028773988 -2.6720034 -4.9051167e-17 -5.2172126
0.0028617867 -0.05 -0.00080010749 -2.1368561 3.2627257e-17 -4.6588214
0.0022485315 -0.05 -0.0019074134 -1.6207075 -4.3490969e-16 -3.9858468
0.0017095863 -0.05 -0.003032511 -1.1471971 9.1505029e-17 -3.2155916
0.0012491816 -0.05 -0.0041727195 -0.74563969 2.7963495e-18 -2.3591715
0.0008710686 -0.05 -0.0053238387 -0.43774884 -4.0373549e-17 -1.4461597
0.00057813769 -0.05 -0.0064813416 -0.25537729 1.2459427e-16 -0.7363457
0.00037191469 -0.05 -0.0076398533 -0.16194541 6.8621128e-17 -0.13916719
0.00025222585 -0.05 -0.008793318 -0.12373335 -6.5143489e-17 0.42829653
0.00021731847 -0.05 -0.0099357393 -0.14540193 1.6774099e-18 1.101095
0.9962153 -0.05 0.031829069 -16.773342 1.2016865e-16 1.7719239
0.98997 -0.05 0.032463099 -20.542623 2.1204762e-15 2.0615657
0.98372397 -0.05 0.033090106 -20.62428 -8.3418473e-16 2.0487473
0.97747725 -0.05 0.033710116 -20.49001 -1.6100925e-16 2.012125
0.97122986 -0.05 0.034323238 -20.384368 -2.1322148e-16 1.979421
0.9649818 -0.05 0.034929631 -20.257707 8.7021113e-17 1.9448663
0.9587331 -0.05 0.035529277 -20.127646 -1.9469901e-16 1.9102077
0.95248375 -0.05 0.036122241 -19.994137 -2.1251501e-16 1.8761767
0.9462338 -0.05 0.036708679 -19.85763 3.2496499e-16 1.8423719
0.93998323 -0.05 0.037288675 -19.715851 -6.5004587e-16 1.8087649
0.93373208 -0.05 0.037862235 -19.566848 5.4659586e-16 1.7746973
0.92748035 -0.05 0.03842942 -19.413481 -6.1994207e-16 1.7409138
0.92122805 -0.05 0.038990308 -19.26114 -2.8273101e-18 1.7073001
0.91497518 -0.05 0.039544932 -19.113573 -3.3127076e-16 1.6747684
0.90872177 -0.05 0.040093446 -18.969617 2.7521664e-16 1.6431701
0.90246784 -0.05 0.040635848 -18.82242 5.6212984e-16 1.6118232
0.89621338 -0.05 0.041172169 -18.666966 1.0559121e-15 1.580577
0.88995842 -0.05 0.041702545 -18.506243 -5.2429657e-16 1.5493303
0.88370296 -0.05 0.042226991 -18.345088 -3.9986915e-16 1.518313
0.87744699 -0.05 0.04274545 -18.180443 -3.6716806e-16 1.4877538
0.87119055 -0.05 0.043258061 -18.001634 1.9104239e-16 1.4571104
0.86493363 -0.05 0.043764892 -17.809786 -9.9869616e-16 1.4255804
0.85867625 -0.05 0.044265915 -17.612576 6.4198461e-16 1.3940509
0.85241841 -0.05 0.044761217 -17.415723 2.7988016e-16 1.3630203
0.84616011 -0.05 0.04525086 -17.220936 -6.9812454e-16 1.3325613
0.83990139 -0.05 0.045734832 -17.027262 1.5806071e-16 1.3024061
0.83364222 -0.05 0.046213096 -16.833877 -8.7650695e-16 1.2727516
0.82738264 -0.05 0.046685828 -16.641268 8.0330794e-16 1.2439661
0.82112263 -0.05 0.047152989 -16.448593 8.9425989e-17 1.2149137
0.81486222 -0.05 0.047614532 -16.25568 -8.3689401e-16 1.1867596
0.80860139 -0.05 0.048070537 -16.063385 -9.2586925e-16 1.1586644
0.80234016 -0.05 0.048521014 -15.872387 -1.1659873e-15 1.1309632
0.79607854 -0.05 0.048965994 -15.683912 5.0078025e-16 1.1034051
0.78981653 -0.05 0.049405434 -15.496403 3.6654471e-16 1.0762575
0.78355415 -0.05 0.049839419 -15.309589 -5.6302202e-16 1.049619
0.77729138 -0.05 0.050267916 -15.122808 1.6015102e-16 1.0231386
0.77102822 -0.05 0.050690892 -14.935479 -5.540445e-17 0.99716608
0.76476471 -0.05 0.051108409 -14.747087 1.9097617e-16 0.97144175
0.75850084 -0.05 0.051520453 -14.555579 2.3411571e-16 0.94591083
0.7522366 -0.05 0.051927012 -14.361007 1.994765e-16 0.92064893
0.74597202 -0.05 0.052328062 -14.166055 4.8072543e-16 0.89575692
0.73970708 -0.05 0.052723585 -13.972645 3.692591e-16 0.87135554
0.73344179 -0.05 0.053113567 -13.78129 -4.0147366e-17 0.84744161
0.72717617 -0.05 0.053497973 -13.591447 -8.9311988e-16 0.82388055
0.7209102 -0.05 0.053876836 -13.403601 -1.5457712e-16 0.80077027
0.7146439 -0.05 0.054250188 -13.218365 4.8515958e-16 0.77793779
0.70837726 -0.05 0.054617851 -13.035678 5.8140595e-16 0.75527314
0.7021103 -0.05 0.054979878 -12.857575 1.2624752e-16 0.73340011
0.69584301 -0.05 0.055336235 -12.68678 -1.8676044e-16 0.71178391
0.6895754 -0.05 0.055686828 -12.524606 -6.423611e-16 0.69123819
0.68330747 -0.05 0.056031715 -12.370194 -8.8914628e-16 0.67139697
0.67703922 -0.05 0.056370796 -12.219877 -2.8737638e-16 0.65207592
0.67077066 -0.05 0.056704082 -12.072957 3.9356878e-16 0.63314803
0.6645018 -0.05 0.057031457 -11.92891 3.8675228e-16 0.61435256
0.65823262 -0.05 0.057352821 -11.787105 6.7089511e-16 0.59592356
0.65196313 -0.05 0.057668258 -11.648245 -3.0108272e-16 0.5778879
0.64569335 -0.05 0.057977683 -11.512053 -3.7255238e-17 0.55995035
0.63942328 -0.05 0.058280928 -11.37793 3.1377132e-17 0.54224383
0.6331529 -0.05 0.058577963 -11.245915 9.5912651e-17 0.52486976
0.62688222 -0.05 0.058868788 -11.116473 -2.5871534e-16 0.50776461
0.62061126 -0.05 0.059153266 -10.989081 5.6544217e-17 0.4907432
0.61434002 -0.05 0.059431313 -10.863742 -1.3780374e-16 0.47407235
0.60806848 -0.05 0.059702926 -10.740848 3.593949e-16 0.45757619
0.60179666 -0.05 0.05996796 -10.620026 3.1087103e-17 0.44119664
0.59552458 -0.05 0.060226343 -10.501199 1.1208502e-16 0.42510459
0.58925221 -0.05 0.060477991 -10.38464 3.1105515e-16 0.40910769
0.58297957 -0.05 0.060722813 -10.270203 -4.9404467e-17 0.39336106
0.57670667 -0.05 0.060960694 -10.157914 4.0037098e-16 0.37764899
0.57043351 -0.05 0.06119149 -10.047325 8.6540003e-17 0.36217058
0.56416009 -0.05 0.061415167 -9.9390461 -1.2439802e-16 0.34688657
0.5578864 -0.05 0.061631603 -9.8328594 -6.7191178e-17 0.33165628
0.55161247 -0.05 0.061840638 -9.7284981 3.3426123e-16 0.31656206
0.5453383 -0.05 0.062042199 -9.6261902 -1.1827582e-16 0.30164979
0.53906389 -0.05 0.062236124 -9.5258757 -3.6305518e-16 0.28672359
0.53278923 -0.05 0.062422274 -9.4272276 -4.5750063e-16 0.27203001
0.52651436 -0.05 0.062600578 -9.3307226 -2.7128298e-16 0.25739696
0.52023926 -0.05 0.062770863 -9.2360355 -1.0136025e-16 0.24282676
0.51396394 -0.05 0.062932991 -9.1433478 3.0908848e-16 0.2283527
0.50768842 -0.05 0.063086789 -9.0524176 1.9648007e-17 0.21390079
0.50141269 -0.05 0.063232124 -8.9632532 -1.0504033e-17 0.19959028
0.49513677 -0.05 0.06336887 -8.8760779 1.6258735e-17 0.1853013
0.48886066 -0.05 0.06349683 -8.7908288 1.2693083e-16 0.17102653
0.48258437 -0.05 0.063615801 -8.7071264 1.1494017e-16 0.15677916
0.47630793 -0.05 0.063725661 -8.6252834 -5.8929238e-17 0.14266774
0.47003133 -0.05 0.063826268 -8.5455538 7.4873056e-17 0.12851656
0.46375458 -0.05 0.063917374 -8.4676649 6.7889241e-17 0.11431972
0.45747769 -0.05 0.063998765 -8.3913319 -3.5491012e-18 0.10016091
0.45120069 -0.05 0.064070279 -8.3167535 1.6015444e-17 0.086054038
0.44492358 -0.05 0.064131733 -8.2440016 -6.5024169e-18 0.072021288
0.43864638 -0.05 0.064182901 -8.1731628 -7.1103031e-17 0.058198524
0.43236911 -0.05 0.064223543 -8.1037822 -5.4830189e-18 0.044290201
0.42609177 -0.05 0.064253449 -8.0359321 9.3155995e-18 0.029452736
0.41981438 -0.05 0.064272421 -7.9698811 1.3902005e-17 0.014536337
0.41353697 -0.05 0.06428021 -7.9057108 -4.7674616e-19 -0.0001017505
0.40725957 -0.05 0.06427654 -7.84307 -9.2542477e-19 -0.015083735
0.40098218 -0.05 0.064261185 -7.7822018 -3.2138364e-17 -0.030417848
0.39470483 -0.05 0.064233862 -7.723034 1.1940658e-18 -0.044598879
0.38842755 -0.05 0.064194263 -7.6652587 3.1202037e-17 -0.059177914
0.38215036 -0.05 0.064142171 -7.6093045 -4.2653367e-17 -0.073913754
0.37587329 -0.05 0.064077349 -7.5555662 4.4020287e-17 -0.088865406
0.36959635 -0.05 0.063999398 -7.5035163 -3.1331311e-17 -0.10406549
0.36331961 -0.05 0.063908 -7.4532092 7.2521997e-17 -0.11943656
0.35704308 -0.05 0.063802914 -7.4051614 5.409078e-17 -0.13508876
0.35076681 -0.05 0.063683802 -7.3594455 -5.6123952e-17 -0.15096809
0.34449082 -0.05 0.063550313 -7.3161794 -2.0451071e-16 -0.16712481
0.33821516 -0.05 0.063402058 -7.2753848 -1.5604485e-17 -0.18358375
0.33193989 -0.05 0.06323871 -7.2370774 -1.592594e-16 -0.20029774
0.32566502 -0.05 0.06305988 -7.2011679 -1.5660093e-16 -0.21748158
0.31939064 -0.05 0.062865146 -7.166744 2.8266343e-17 -0.23496829
0.31311678 -0.05 0.062654119 -7.1337528 7.5136742e-17 -0.25291546
0.30684351 -0.05 0.062426387 -7.1072165 -7.5120752e-17 -0.27163817
0.30057088 -0.05 0.062181516 -7.1489915 -4.9364107e-17 -0.2931772
