# yPlus  FACE_DATA 448
# x y z  yPlus
0.2996403 -0.05 -0.057969562 22.863398
0.29400749 -0.05 -0.058192985 23.184149
0.2884552 -0.05 -0.058398632 23.273636
0.28298233 -0.05 -0.058586763 23.364719
0.27758775 -0.05 -0.058757692 23.452038
0.2722704 -0.05 -0.058911761 23.538224
0.26702919 -0.05 -0.059049291 23.622518
0.26186306 -0.05 -0.059170572 23.705678
0.256771 -0.05 -0.059275937 23.787339
0.25175195 -0.05 -0.059365676 23.868588
0.24680493 -0.05 -0.059440014 23.9476
0.24192893 -0.05 -0.059499275 24.02501
0.23712297 -0.05 -0.059543742 24.10054
0.23238608 -0.05 -0.05957372 24.174463
0.22771731 -0.05 -0.059589494 24.246823
0.22311572 -0.05 -0.059591273 24.317758
0.21858039 -0.05 -0.059579365 24.387514
0.2141104 -0.05 -0.05955403 24.457119
0.20970485 -0.05 -0.059515438 24.525051
0.20536285 -0.05 -0.059463894 24.592171
0.20108354 -0.05 -0.059399649 24.658623
0.19686606 -0.05 -0.059322971 24.724816
0.19270954 -0.05 -0.0592341 24.79122
0.18861316 -0.05 -0.059133156 24.856443
0.1845761 -0.05 -0.059020428 24.920794
0.18059755 -0.05 -0.058896141 24.985262
0.1766767 -0.05 -0.05876049 25.048584
0.17281276 -0.05 -0.058613718 25.112159
0.16900496 -0.05 -0.05845602 25.174894
0.16525253 -0.05 -0.058287564 25.237093
0.16155473 -0.05 -0.058108515 25.297715
0.1579108 -0.05 -0.05791913 25.357845
0.15432003 -0.05 -0.057719552 25.417423
0.15078168 -0.05 -0.057509955 25.475478
0.14729505 -0.05 -0.057290521 25.532953
0.14385945 -0.05 -0.05706137 25.589169
0.14047418 -0.05 -0.056822691 25.64453
0.13713857 -0.05 -0.05657463 25.699511
0.13385195 -0.05 -0.056317382 25.753477
0.13061366 -0.05 -0.056051088 25.807602
0.12742307 -0.05 -0.055775799 25.860346
0.12427954 -0.05 -0.055491726 25.91223
0.12118242 -0.05 -0.055199016 25.9642
0.11813113 -0.05 -0.054897711 26.014626
0.11512506 -0.05 -0.054587909 26.063394
0.11216361 -0.05 -0.054269768 26.110653
0.1092462 -0.05 -0.053943343 26.156738
0.10637225 -0.05 -0.05360875 26.199982
0.1035412 -0.05 -0.053266171 26.242962
0.10075249 -0.05 -0.052915568 26.284904
0.098005591 -0.05 -0.052557019 26.324126
0.095299955 -0.05 -0.052190686 26.363148
0.092635076 -0.05 -0.051816506 26.400776
0.090010438 -0.05 -0.051434567 26.434396
0.087425531 -0.05 -0.051044951 26.467723
0.084879865 -0.05 -0.050647706 26.497702
0.082372953 -0.05 -0.050242893 26.52671
0.079904345 -0.05 -0.049830425 26.551772
0.07747358 -0.05 -0.049410308 26.572499
0.075080196 -0.05 -0.048982636 26.589866
0.072723751 -0.05 -0.048547442 26.606055
0.070403835 -0.05 -0.048104629 26.620365
0.068120034 -0.05 -0.047654173 26.631822
0.065871938 -0.05 -0.047196084 26.643904
0.063659167 -0.05 -0.046730284 26.654388
0.061481349 -0.05 -0.046256703 26.664059
0.059338119 -0.05 -0.04577529 26.675264
0.057229132 -0.05 -0.045285958 26.689209
0.055154036 -0.05 -0.044788683 26.702476
0.053112536 -0.05 -0.044283288 26.718161
0.051104334 -0.05 -0.043769631 26.729494
0.049129125 -0.05 -0.043247659 26.741136
0.047186648 -0.05 -0.042717196 26.749343
0.045276662 -0.05 -0.042178065 26.758942
0.043398965 -0.05 -0.041629998 26.770085
0.041553347 -0.05 -0.041072805 26.786578
0.039739609 -0.05 -0.040506347 26.813611
0.037957607 -0.05 -0.039930341 26.853844
0.036207227 -0.05 -0.039344484 26.904833
0.034488383 -0.05 -0.038748464 26.963306
0.032801012 -0.05 -0.038141967 27.025265
0.031145095 -0.05 -0.037524642 27.091235
0.029520671 -0.05 -0.036896054 27.155269
0.027927798 -0.05 -0.03625582 27.215337
0.026366606 -0.05 -0.035603449 27.271042
0.024837286 -0.05 -0.034938417 27.31971
0.023340082 -0.05 -0.034260206 27.365977
0.021875353 -0.05 -0.033568174 27.413941
0.020443484 -0.05 -0.032861735 27.464808
0.019045023 -0.05 -0.032140143 27.534406
0.017680604 -0.05 -0.031402617 27.620987
0.01635095 -0.05 -0.030648385 27.743619
0.015056975 -0.05 -0.029876567 27.895274
0.01379977 -0.05 -0.029086261 28.069952
0.012580621 -0.05 -0.028276522 28.246277
0.011401039 -0.05 -0.027446298 28.415975
0.01026273 -0.05 -0.026594467 28.560615
0.0091677232 -0.05 -0.025720092 28.673414
0.0081184724 -0.05 -0.024822236 28.732813
0.0071176636 -0.05 -0.023899702 28.714047
0.0061683225 -0.05 -0.022951638 28.594573
0.005274172 -0.05 -0.021977729 28.365797
0.0044390637 -0.05 -0.02097744 27.98235
0.0036670888 -0.05 -0.019950778 27.412302
0.0029630367 -0.05 -0.018898866 26.621119
0.0023315386 -0.05 -0.017822987 25.565148
0.0017770349 -0.05 -0.016725456 24.200285
0.0013036166 -0.05 -0.015610144 22.504595
0.0009145437 -0.05 -0.01448132 20.47047
0.00061178787 -0.05 -0.013344211 18.102951
0.00039568443 -0.05 -0.012204868 15.380365
0.00026499029 -0.05 -0.01106941 12.255533
0.99625309 -0.05 0.030930512 3.9672876
0.99008305 -0.05 0.029774406 0.89077082
0.98391172 -0.05 0.028625238 1.1029667
0.9777391 -0.05 0.027482984 0.65735898
0.97156524 -0.05 0.026347537 0.90829952
0.96539015 -0.05 0.025218741 0.78970782
0.95921385 -0.05 0.024096612 0.8481473
0.95303635 -0.05 0.022981089 0.82536427
0.94685769 -0.05 0.021872018 0.84908928
0.94067789 -0.05 0.020769314 0.88531284
0.93449696 -0.05 0.019672974 0.92497448
0.92831491 -0.05 0.018582937 0.92891424
0.92213177 -0.05 0.017499128 0.92618174
0.91594754 -0.05 0.016421513 0.89525188
0.90976227 -0.05 0.015349943 0.86896224
0.90357595 -0.05 0.014284418 0.83111574
0.8973886 -0.05 0.013224909 0.79099007
0.89120025 -0.05 0.01217128 0.72558994
0.88501089 -0.05 0.011123519 0.62926334
0.87882053 -0.05 0.010081681 0.4866433
0.87262921 -0.05 0.0090456304 0.22185718
0.86643693 -0.05 0.0080152998 0.45662042
0.8602437 -0.05 0.0069907178 0.69036003
0.85404953 -0.05 0.0059717987 0.86725037
0.84785444 -0.05 0.0049584803 1.030819
0.84165844 -0.05 0.0039507765 1.1948331
0.83546153 -0.05 0.0029487236 1.3565665
0.82926373 -0.05 0.0019521473 1.5213896
0.82306504 -0.05 0.00096108789 1.6889131
0.81686547 -0.05 -2.440833e-05 1.8594771
0.81066503 -0.05 -0.0010044203 2.0326445
0.80446373 -0.05 -0.0019789573 2.2080969
0.79826157 -0.05 -0.0029480507 2.3927134
0.79205856 -0.05 -0.0039116553 2.5882371
0.78585472 -0.05 -0.0048698569 2.7914794
0.77965003 -0.05 -0.0058226206 3.0010232
0.77344451 -0.05 -0.0067699149 3.21599
0.76723815 -0.05 -0.0077117999 3.4436899
0.76103098 -0.05 -0.0086482616 3.6778906
0.75482299 -0.05 -0.0095792894 3.9153183
0.7486142 -0.05 -0.010504856 4.1573487
0.74240458 -0.05 -0.011424944 4.4043861
0.73619416 -0.05 -0.012339541 4.6543915
0.72998292 -0.05 -0.01324861 4.907239
0.72377088 -0.05 -0.014152184 5.1634146
0.71755804 -0.05 -0.015050293 5.4244291
0.7113444 -0.05 -0.015942763 5.6875409
0.70512995 -0.05 -0.016829644 5.9530778
0.6989147 -0.05 -0.017710903 6.2240002
0.69269865 -0.05 -0.018586445 6.4983281
0.68648181 -0.05 -0.019456326 6.7751659
0.68026416 -0.05 -0.02032045 7.0543572
0.67404571 -0.05 -0.021178826 7.3371829
0.66782646 -0.05 -0.022031338 7.6232248
0.66160639 -0.05 -0.022877885 7.9091303
0.65538552 -0.05 -0.023718552 8.1966924
0.64916386 -0.05 -0.024553253 8.4869003
0.64294136 -0.05 -0.025381822 8.7787448
0.63671805 -0.05 -0.026204227 9.0702356
0.63049394 -0.05 -0.027020468 9.3627645
0.624269 -0.05 -0.02783041 9.6562084
0.61804323 -0.05 -0.028633967 9.9549742
0.61181664 -0.05 -0.029431137 10.256807
0.60558922 -0.05 -0.030221775 10.559083
0.59936097 -0.05 -0.031005807 10.861322
0.59313187 -0.05 -0.031783153 11.164054
0.58690193 -0.05 -0.03255372 11.466978
0.58067115 -0.05 -0.033317391 11.771907
0.5744395 -0.05 -0.034074025 12.076927
0.568207 -0.05 -0.034823587 12.38144
0.56197364 -0.05 -0.035565955 12.682825
0.55573941 -0.05 -0.036300969 12.980544
0.54950431 -0.05 -0.037028556 13.275542
0.54326832 -0.05 -0.037748553 13.567723
0.53703145 -0.05 -0.038460823 13.855386
0.5307937 -0.05 -0.039165294 14.139419
0.52455505 -0.05 -0.039861794 14.419385
0.5183155 -0.05 -0.040550182 14.695903
0.51207504 -0.05 -0.041230289 14.96966
0.50583367 -0.05 -0.041901978 15.240885
0.49959139 -0.05 -0.042565125 15.509948
0.49334817 -0.05 -0.043219533 15.775431
0.48710403 -0.05 -0.043864999 16.037405
0.48085897 -0.05 -0.044501398 16.296638
0.47461297 -0.05 -0.045128592 16.554934
0.46836603 -0.05 -0.045746331 16.811647
0.46211814 -0.05 -0.046354399 17.066157
0.4558693 -0.05 -0.046952635 17.31825
0.44961952 -0.05 -0.047540856 17.567953
0.44336876 -0.05 -0.048118835 17.815469
0.43711706 -0.05 -0.048686331 18.061725
0.4308644 -0.05 -0.049243135 18.306963
0.42461076 -0.05 -0.049789047 18.551373
0.41835618 -0.05 -0.050323817 18.794374
0.41210062 -0.05 -0.050847169 19.035487
0.4058441 -0.05 -0.051358876 19.274955
0.39958662 -0.05 -0.051858654 19.513142
0.39332817 -0.05 -0.052346192 19.74983
0.38706877 -0.05 -0.052821275 19.986433
0.38080842 -0.05 -0.053283663 20.223119
0.3745471 -0.05 -0.053732956 20.458482
0.36828485 -0.05 -0.054168833 20.691729
0.36202166 -0.05 -0.054591053 20.923978
0.35575753 -0.05 -0.054999276 21.155841
0.3494925 -0.05 -0.055393147 21.387946
0.34322655 -0.05 -0.055772277 21.619612
0.3369597 -0.05 -0.056136337 21.850549
0.33069198 -0.05 -0.056484934 22.080189
0.3244234 -0.05 -0.056817641 22.30808
0.31815398 -0.05 -0.057134071 22.537005
0.31188373 -0.05 -0.057433804 22.768757
0.30561268 -0.05 -0.057716407 22.761338
0.29459831 -0.05 0.061932377 23.116861
0.28896663 -0.05 0.061682118 22.761878
0.28341669 -0.05 0.061420907 22.640751
0.27794734 -0.05 0.061148908 22.509509
0.27255746 -0.05 0.060866341 22.386407
0.26724594 -0.05 0.060573456 22.267624
0.26201168 -0.05 0.060270484 22.154371
0.25685361 -0.05 0.059957624 22.04611
0.25177068 -0.05 0.059635121 21.943027
0.24676183 -0.05 0.059303179 21.845018
0.24182603 -0.05 0.058961936 21.751199
0.23696226 -0.05 0.058611631 21.66184
0.23216954 -0.05 0.058252465 21.576699
0.22744686 -0.05 0.057884661 21.495586
0.22279325 -0.05 0.057508419 21.418765
0.21820776 -0.05 0.057123875 21.345821
0.21368943 -0.05 0.056731253 21.276867
0.20923734 -0.05 0.056330736 21.212523
0.20485058 -0.05 0.05592242 21.15118
0.20052824 -0.05 0.055506533 21.093129
0.19626944 -0.05 0.055083254 21.03865
0.19207328 -0.05 0.054652775 20.98782
0.1879389 -0.05 0.054215264 20.94131
0.18386546 -0.05 0.053770773 20.897454
0.17985212 -0.05 0.053319518 20.856796
0.17589804 -0.05 0.052861657 20.820243
0.17200242 -0.05 0.052397317 20.786457
0.16816444 -0.05 0.051926673 20.756495
0.16438333 -0.05 0.051449854 20.729444
0.16065829 -0.05 0.050966965 20.705335
0.15698857 -0.05 0.050478105 20.682866
0.15337341 -0.05 0.049983468 20.663013
0.14981206 -0.05 0.049483138 20.646058
0.1463038 -0.05 0.048977226 20.631363
0.1428479 -0.05 0.048465851 20.619944
0.13944366 -0.05 0.047949079 20.610023
0.13609039 -0.05 0.047427039 20.601965
0.13278738 -0.05 0.046899818 20.59577
0.12953396 -0.05 0.046367557 20.591644
0.12632946 -0.05 0.045830338 20.590299
0.12317324 -0.05 0.04528816 20.590608
0.12006466 -0.05 0.044741179 20.59373
0.11700306 -0.05 0.044189491 20.600308
0.11398783 -0.05 0.043633083 20.607535
0.11101837 -0.05 0.043072005 20.614786
0.10809409 -0.05 0.042506363 20.62188
0.10521438 -0.05 0.041936164 20.62942
0.10237868 -0.05 0.041361476 20.636006
0.099586372 -0.05 0.04078243 20.645666
0.096836944 -0.05 0.040198944 20.657615
0.094129844 -0.05 0.039611049 20.670093
0.091464514 -0.05 0.039018862 20.68503
0.088840457 -0.05 0.038422278 20.700886
0.086257149 -0.05 0.03782134 20.71513
0.083714078 -0.05 0.037216089 20.731228
0.081210749 -0.05 0.03660653 20.74658
0.078746673 -0.05 0.035992682 20.765014
0.076321407 -0.05 0.035374422 20.782558
0.073934494 -0.05 0.034751718 20.797719
0.071585465 -0.05 0.034124623 20.8107
0.069273874 -0.05 0.033493133 20.82327
0.066999323 -0.05 0.032857119 20.83513
0.064761402 -0.05 0.032216521 20.846545
0.0625597 -0.05 0.031571314 20.859444
0.060393847 -0.05 0.03092139 20.872969
0.058263477 -0.05 0.030266645 20.886696
0.056168229 -0.05 0.029607001 20.900796
0.054107767 -0.05 0.028942339 20.914039
0.052081747 -0.05 0.02827261 20.925556
0.050089882 -0.05 0.027597608 20.936385
0.048131893 -0.05 0.02691717 20.940292
0.046207478 -0.05 0.026231215 20.945746
0.044316393 -0.05 0.025539548 20.950896
0.042458412 -0.05 0.02484197 20.952735
0.040633355 -0.05 0.024138198 20.94541
0.038841032 -0.05 0.023428028 20.930748
0.037081254 -0.05 0.0227113 20.915028
0.0353539 -0.05 0.021987723 20.906382
0.033658884 -0.05 0.021256984 20.908849
0.031996145 -0.05 0.020518765 20.922517
0.030365648 -0.05 0.01977275 20.93102
0.028767403 -0.05 0.019018584 20.929053
0.027201487 -0.05 0.018255839 20.91054
0.025667987 -0.05 0.017484138 20.871007
0.024167075 -0.05 0.016703003 20.810686
0.022698986 -0.05 0.015911927 20.745299
0.021264005 -0.05 0.015110415 20.691539
0.019862545 -0.05 0.014297858 20.657084
0.018495039 -0.05 0.013473703 20.626574
0.017162095 -0.05 0.012637253 20.616086
0.01586441 -0.05 0.011787784 20.613924
0.014602771 -0.05 0.010924586 20.643612
0.013378161 -0.05 0.010046859 20.723374
0.012191742 -0.05 0.0091537957 20.899981
0.011044877 -0.05 0.0082445648 21.149455
0.0099391597 -0.05 0.0073182416 21.388185
0.0088763838 -0.05 0.0063738525 21.555695
0.0078586494 -0.05 0.0054106347 21.612471
0.0068884807 -0.05 0.0044278601 21.540876
0.0059686548 -0.05 0.0034245619 21.32482
0.0051022582 -0.05 0.0024001458 20.946672
0.0042930271 -0.05 0.0013546083 20.39097
0.0035448446 -0.05 0.00028773988 19.617287
0.0028617867 -0.05 -0.00080010749 18.580405
0.0022485315 -0.05 -0.0019074134 17.23996
0.0017095863 -0.05 -0.003032511 15.543163
0.0012491816 -0.05 -0.0041727195 13.375736
0.0008710686 -0.05 -0.0053238387 10.534031
0.00057813769 -0.05 -0.0064813416 7.5728686
0.00037191469 -0.05 -0.0076398533 3.6039855
0.00025222585 -0.05 -0.008793318 5.6581207
0.00021731847 -0.05 -0.0099357393 9.0658767
0.9962153 -0.05 0.031829069 29.505695
0.98997 -0.05 0.032463099 39.123955
0.98372397 -0.05 0.033090106 39.077077
0.97747725 -0.05 0.033710116 38.953048
0.97122986 -0.05 0.034323238 38.8535
0.9649818 -0.05 0.034929631 38.733145
0.9587331 -0.05 0.035529277 38.608985
0.95248375 -0.05 0.036122241 38.48076
0.9462338 -0.05 0.036708679 38.349259
0.93998323 -0.05 0.037288675 38.212201
0.93373208 -0.05 0.037862235 38.06762
0.92748035 -0.05 0.03842942 37.918019
0.92122805 -0.05 0.038990308 37.768966
0.91497518 -0.05 0.039544932 37.623952
0.90872177 -0.05 0.040093446 37.481679
0.90246784 -0.05 0.040635848 37.335735
0.89621338 -0.05 0.041172169 37.180978
0.88995842 -0.05 0.041702545 37.019983
0.88370296 -0.05 0.042226991 36.858089
0.87744699 -0.05 0.04274545 36.692326
0.87119055 -0.05 0.043258061 36.511413
0.86493363 -0.05 0.043764892 36.31652
0.85867625 -0.05 0.044265915 36.115276
0.85241841 -0.05 0.044761217 35.913407
0.84616011 -0.05 0.04525086 35.712662
0.83990139 -0.05 0.045734832 35.511771
0.83364222 -0.05 0.046213096 35.310127
0.82738264 -0.05 0.046685828 35.107847
0.82112263 -0.05 0.047152989 34.904619
0.81486222 -0.05 0.047614532 34.699675
0.80860139 -0.05 0.048070537 34.494267
0.80234016 -0.05 0.048521014 34.288958
0.79607854 -0.05 0.048965994 34.085521
0.78981653 -0.05 0.049405434 33.881675
0.78355415 -0.05 0.049839419 33.677131
0.77729138 -0.05 0.050267916 33.471519
0.77102822 -0.05 0.050690892 33.264075
0.76476471 -0.05 0.051108409 33.054303
0.75850084 -0.05 0.051520453 32.839667
0.7522366 -0.05 0.051927012 32.619857
0.74597202 -0.05 0.052328062 32.398103
0.73970708 -0.05 0.052723585 32.176676
0.73344179 -0.05 0.053113567 31.956255
0.72717617 -0.05 0.053497973 31.736045
0.7209102 -0.05 0.053876836 31.516665
0.7146439 -0.05 0.054250188 31.298874
0.70837726 -0.05 0.054617851 31.082796
0.7021103 -0.05 0.054979878 30.870632
0.69584301 -0.05 0.055336235 30.666357
0.6895754 -0.05 0.055686828 30.471065
0.68330747 -0.05 0.056031715 30.284113
0.67703922 -0.05 0.056370796 30.100898
0.67077066 -0.05 0.056704082 29.920563
0.6645018 -0.05 0.057031457 29.742707
0.65823262 -0.05 0.057352821 29.566367
0.65196313 -0.05 0.057668258 29.392774
0.64569335 -0.05 0.057977683 29.221362
0.63942328 -0.05 0.058280928 29.051739
0.6331529 -0.05 0.058577963 28.883641
0.62688222 -0.05 0.058868788 28.717978
0.62061126 -0.05 0.059153266 28.553902
0.61434002 -0.05 0.059431313 28.391628
0.60806848 -0.05 0.059702926 28.231581
0.60179666 -0.05 0.05996796 28.073418
0.59552458 -0.05 0.060226343 27.916711
0.58925221 -0.05 0.060477991 27.76235
0.58297957 -0.05 0.060722813 27.609864
0.57670667 -0.05 0.060960694 27.459544
0.57043351 -0.05 0.06119149 27.310525
0.56416009 -0.05 0.061415167 27.16395
0.5578864 -0.05 0.061631603 27.019353
0.55161247 -0.05 0.061840638 26.876609
0.5453383 -0.05 0.062042199 26.735716
0.53906389 -0.05 0.062236124 26.597035
0.53278923 -0.05 0.062422274 26.459814
0.52651436 -0.05 0.062600578 26.325078
0.52023926 -0.05 0.062770863 26.191979
0.51396394 -0.05 0.062932991 26.061258
0.50768842 -0.05 0.063086789 25.932287
0.50141269 -0.05 0.063232124 25.805347
0.49513677 -0.05 0.06336887 25.680341
0.48886066 -0.05 0.06349683 25.557662
0.48258437 -0.05 0.063615801 25.436544
0.47630793 -0.05 0.063725661 25.317653
0.47003133 -0.05 0.063826268 25.201134
0.46375458 -0.05 0.063917374 25.087089
0.45747769 -0.05 0.063998765 24.974662
0.45120069 -0.05 0.064070279 24.864478
0.44492358 -0.05 0.064131733 24.756224
0.43864638 -0.05 0.064182901 24.650548
0.43236911 -0.05 0.064223543 24.546527
0.42609177 -0.05 0.064253449 24.444671
0.41981438 -0.05 0.064272421 24.344811
0.41353697 -0.05 0.06428021 24.247649
0.40725957 -0.05 0.06427654 24.152319
0.40098218 -0.05 0.064261185 24.05941
0.39470483 -0.05 0.064233862 23.968236
0.38842755 -0.05 0.064194263 23.879183
0.38215036 -0.05 0.064142171 23.792515
0.37587329 -0.05 0.064077349 23.709276
0.36959635 -0.05 0.063999398 23.628082
0.36331961 -0.05 0.063908 23.549671
0.35704308 -0.05 0.063802914 23.474375
0.35076681 -0.05 0.063683802 23.402719
0.34449082 -0.05 0.063550313 23.334399
0.33821516 -0.05 0.063402058 23.27007
0.33193989 -0.05 0.06323871 23.209321
0.32566502 -0.05 0.06305988 23.152475
0.31939064 -0.05 0.062865146 23.097548
0.31311678 -0.05 0.062654119 23.045194
0.30684351 -0.05 0.062426387 23.005295
0.30057088 -0.05 0.062181516 23.197118
