# p  FACE_DATA 448
# x y z  p
0.29849761 -0.05 -0.058928861 99373.295
0.29286151 -0.05 -0.05904213 99366.772
0.28730627 -0.05 -0.059139201 99360.152
0.28183076 -0.05 -0.059220311 99353.699
0.27643388 -0.05 -0.059285754 99347.32
0.27111453 -0.05 -0.059335848 99341.069
0.26587163 -0.05 -0.059370896 99334.868
0.26070412 -0.05 -0.059391167 99328.82
0.25561097 -0.05 -0.05939697 99322.768
0.25059113 -0.05 -0.059388579 99316.88
0.24564359 -0.05 -0.059366198 99311.097
0.24076737 -0.05 -0.059330131 99305.432
0.23596146 -0.05 -0.059280642 99299.852
0.23122489 -0.05 -0.059218017 99294.323
0.2265567 -0.05 -0.059142521 99288.9
0.22195596 -0.05 -0.059054349 99283.622
0.21742173 -0.05 -0.058953786 99278.348
0.21295308 -0.05 -0.058841074 99273.238
0.20854913 -0.05 -0.05871637 99268.267
0.20420898 -0.05 -0.058579959 99263.357
0.19993174 -0.05 -0.058432073 99258.575
0.19571655 -0.05 -0.058272966 99253.784
0.19156258 -0.05 -0.05810286 99249.131
0.18746895 -0.05 -0.057921858 99244.657
0.18343487 -0.05 -0.057730235 99240.19
0.17945951 -0.05 -0.057528198 99235.919
0.17554205 -0.05 -0.057315928 99231.686
0.17168172 -0.05 -0.057093651 99227.575
0.16787773 -0.05 -0.056861547 99223.515
0.16412931 -0.05 -0.056619771 99219.632
0.16043572 -0.05 -0.056368471 99215.829
0.15679619 -0.05 -0.056107889 99212.065
0.15321 -0.05 -0.055838157 99208.472
0.14967643 -0.05 -0.055559432 99204.91
0.14619476 -0.05 -0.055271883 99201.502
0.14276429 -0.05 -0.054975616 99198.208
0.13938433 -0.05 -0.054670807 99195.066
0.13605421 -0.05 -0.054357588 99192.058
0.13277324 -0.05 -0.054036143 99189.049
0.12954078 -0.05 -0.053706597 99186.197
0.12635619 -0.05 -0.053368991 99183.503
0.1232188 -0.05 -0.053023521 99180.793
0.120128 -0.05 -0.052670325 99178.224
0.11708318 -0.05 -0.05230943 99175.812
0.11408374 -0.05 -0.051940924 99173.576
0.11112908 -0.05 -0.051564952 99171.421
0.10821861 -0.05 -0.05118156 99169.563
0.10535175 -0.05 -0.050790851 99167.683
0.10252793 -0.05 -0.050392996 99165.876
0.099746608 -0.05 -0.049987946 99164.323
0.097007242 -0.05 -0.049575768 99162.793
0.094309284 -0.05 -0.049156614 99161.357
0.09165223 -0.05 -0.048730413 99160.282
0.089035559 -0.05 -0.048297239 99159.28
0.086458762 -0.05 -0.047857169 99158.609
0.083921348 -0.05 -0.047410237 99157.9
0.081422829 -0.05 -0.046956496 99157.375
0.078962755 -0.05 -0.046495848 99157.077
0.076540667 -0.05 -0.046028295 99157.023
0.074156101 -0.05 -0.045553918 99157.098
0.071808614 -0.05 -0.045072744 99157.456
0.069497797 -0.05 -0.044584666 99158.166
0.067223237 -0.05 -0.044089652 99159.029
0.064984526 -0.05 -0.043587704 99159.986
0.062781283 -0.05 -0.043078738 99161.218
0.060613139 -0.05 -0.042562674 99162.835
0.058479729 -0.05 -0.042039458 99164.944
0.056380711 -0.05 -0.041508991 99167.5
0.054315733 -0.05 -0.040971247 99170.251
0.052284502 -0.05 -0.040426041 99173.41
0.050286725 -0.05 -0.039873226 99176.688
0.048322097 -0.05 -0.039312742 99180.493
0.046390361 -0.05 -0.038744409 99184.882
0.044491279 -0.05 -0.038168044 99190.073
0.042624654 -0.05 -0.037583376 99196.02
0.040790282 -0.05 -0.036990213 99202.284
0.038987964 -0.05 -0.036388407 99208.977
0.037217561 -0.05 -0.035777676 99216.66
0.035478968 -0.05 -0.035157714 99225.545
0.033772103 -0.05 -0.034528208 99235.671
0.03209691 -0.05 -0.033888843 99246.509
0.030453377 -0.05 -0.033239265 99257.816
0.028841552 -0.05 -0.032579042 99270.241
0.027261499 -0.05 -0.031907793 99284.881
0.025713357 -0.05 -0.031225028 99301.62
0.02419733 -0.05 -0.030530229 99320.015
0.02271367 -0.05 -0.029822879 99339.761
0.021262748 -0.05 -0.029102346 99361.879
0.019844963 -0.05 -0.028368051 99387.191
0.018460875 -0.05 -0.027619261 99415.675
0.017111134 -0.05 -0.026855204 99446.405
0.015796477 -0.05 -0.026075125 99479.526
0.014517836 -0.05 -0.025278158 99515.524
0.013276321 -0.05 -0.024463427 99556.495
0.012073233 -0.05 -0.023630012 99604.344
0.010910106 -0.05 -0.022776887 99660.142
0.0097886671 -0.05 -0.021902967 99724.348
0.0087109622 -0.05 -0.021007354 99798.898
0.0076794633 -0.05 -0.020089157 99883.554
0.0066968796 -0.05 -0.019147236 99976.093
0.0057662528 -0.05 -0.018180797 100074.7
0.0048913113 -0.05 -0.017189595 100185.36
0.0040759164 -0.05 -0.016173171 100305.83
0.0033241583 -0.05 -0.015131615 100437.69
0.0026408036 -0.05 -0.014066141 100579.21
0.0020304575 -0.05 -0.012978122 100727.74
0.0014975146 -0.05 -0.011869962 100878.95
0.001045989 -0.05 -0.01074561 101027.87
0.00067905681 -0.05 -0.0096093954 101169.58
0.00039858721 -0.05 -0.0084665855 101297.91
0.00020479714 -0.05 -0.0073232344 101405.23
9.6324052e-05 -0.05 -0.006185439 101489.02
0.99671512 -0.05 0.016336739 100244.57
0.99052367 -0.05 0.015301467 100189.79
0.98433105 -0.05 0.014273158 100157.27
0.97813729 -0.05 0.013251784 100134.34
0.97194241 -0.05 0.012237242 100115.75
0.96574644 -0.05 0.011229373 100099.2
0.95954938 -0.05 0.010228195 100084.65
0.95335125 -0.05 0.0092336434 100071.18
0.94715209 -0.05 0.008245565 100058.87
0.94095192 -0.05 0.0072638756 100047.17
0.93475074 -0.05 0.0062885705 100036.37
0.92854856 -0.05 0.0053195898 100025.96
0.92234541 -0.05 0.0043568573 100016.27
0.9161413 -0.05 0.0034003385 100006.93
0.90993626 -0.05 0.0024498828 99997.928
0.90373029 -0.05 0.0015054927 99989.334
0.89752341 -0.05 0.00056713719 99981.094
0.89131565 -0.05 -0.00036531928 99972.984
0.88510699 -0.05 -0.0012918902 99965.179
0.87889745 -0.05 -0.002212519 99957.683
0.87268707 -0.05 -0.0031273425 99950.275
0.86647582 -0.05 -0.0040364287 99943.084
0.86026375 -0.05 -0.0049397486 99936.094
0.85405085 -0.05 -0.0058373887 99929.206
0.84783714 -0.05 -0.0067294111 99922.412
0.84162262 -0.05 -0.007615802 99915.762
0.83540731 -0.05 -0.0084965252 99909.371
0.8291912 -0.05 -0.0093717555 99902.84
0.82297433 -0.05 -0.010241453 99896.691
0.81675668 -0.05 -0.011105571 99890.453
0.81053827 -0.05 -0.011964188 99884.399
0.80431909 -0.05 -0.012817315 99878.304
0.79809917 -0.05 -0.013664982 99872.368
0.79187852 -0.05 -0.014507146 99866.486
0.78565712 -0.05 -0.015343891 99860.532
0.779435 -0.05 -0.016175182 99854.731
0.77321214 -0.05 -0.017000989 99848.97
0.76698857 -0.05 -0.017821372 99843.228
0.76076427 -0.05 -0.018636316 99837.512
0.75453928 -0.05 -0.019445811 99831.832
0.74831357 -0.05 -0.02024983 99826.229
0.74208715 -0.05 -0.021048356 99820.618
0.73586003 -0.05 -0.021841376 99815.049
0.72963221 -0.05 -0.022628853 99809.537
0.7234037 -0.05 -0.02341082 99803.987
0.7171745 -0.05 -0.024187308 99798.355
0.71094459 -0.05 -0.024958143 99792.933
0.704714 -0.05 -0.025723373 99787.289
0.69848272 -0.05 -0.026482967 99781.86
0.69225073 -0.05 -0.02723683 99776.295
0.68601806 -0.05 -0.027985017 99770.767
0.67978471 -0.05 -0.028727432 99765.248
0.67355067 -0.05 -0.029464085 99759.655
0.66731594 -0.05 -0.030194859 99754.201
0.66108051 -0.05 -0.030919654 99748.757
0.65484441 -0.05 -0.031638554 99743.158
0.64860761 -0.05 -0.032351474 99737.615
0.64237011 -0.05 -0.033058246 99732.087
0.63613192 -0.05 -0.033758839 99726.512
0.62989304 -0.05 -0.034453255 99720.846
0.62365346 -0.05 -0.035141356 99715.273
0.61741317 -0.05 -0.035823058 99709.6
0.61117218 -0.05 -0.036498356 99703.908
0.6049305 -0.05 -0.037167108 99698.314
0.59868811 -0.05 -0.03782924 99692.67
0.592445 -0.05 -0.03848467 99687.011
0.58620119 -0.05 -0.039133306 99681.246
0.57995666 -0.05 -0.039775032 99675.484
0.57371142 -0.05 -0.040409704 99669.675
0.56746546 -0.05 -0.041037288 99663.778
0.56121878 -0.05 -0.041657664 99657.892
0.55497138 -0.05 -0.04227067 99651.954
0.54872324 -0.05 -0.042876233 99645.946
0.54247438 -0.05 -0.043474191 99640.046
0.53622477 -0.05 -0.044064405 99634.102
0.52997444 -0.05 -0.044646805 99628.085
0.52372337 -0.05 -0.045221218 99622.029
0.51747154 -0.05 -0.045787503 99615.881
0.51121898 -0.05 -0.04634549 99609.725
0.50496568 -0.05 -0.046895044 99603.45
0.49871163 -0.05 -0.047436039 99597.125
0.49245681 -0.05 -0.04796828 99590.756
0.48620125 -0.05 -0.048491562 99584.411
0.47994493 -0.05 -0.049005759 99577.952
0.47368787 -0.05 -0.049510735 99571.44
0.46743005 -0.05 -0.05000624 99564.84
0.46117147 -0.05 -0.050492057 99558.202
0.45491213 -0.05 -0.050968026 99551.546
0.44865204 -0.05 -0.051433963 99544.844
0.44239119 -0.05 -0.05188964 99538.064
0.43612958 -0.05 -0.052334819 99531.263
0.42986722 -0.05 -0.052769289 99524.387
0.42360412 -0.05 -0.05319285 99517.444
0.41734027 -0.05 -0.053605252 99510.453
0.41107568 -0.05 -0.054006219 99503.442
0.40481036 -0.05 -0.054395525 99496.355
0.3985443 -0.05 -0.054772885 99489.302
0.39227752 -0.05 -0.055137989 99482.249
0.38601003 -0.05 -0.055490622 99475.131
0.37974183 -0.05 -0.055830543 99467.931
0.37347293 -0.05 -0.056157353 99460.814
0.36720334 -0.05 -0.056470731 99453.634
0.3609331 -0.05 -0.056770436 99446.436
0.35466219 -0.05 -0.05705613 99439.189
0.34839065 -0.05 -0.057327456 99431.932
0.34211849 -0.05 -0.057584027 99424.652
0.33584573 -0.05 -0.057825511 99417.288
0.32957239 -0.05 -0.058051519 99409.968
0.32329851 -0.05 -0.058261624 99402.699
0.31702409 -0.05 -0.058455436 99395.324
0.31074918 -0.05 -0.058632541 99387.592
0.30447381 -0.05 -0.058792503 99380.368
0.29580046 -0.05 0.061048729 99580.758
0.29016496 -0.05 0.060908607 99576.041
0.28461097 -0.05 0.060755936 99572.092
0.27913734 -0.05 0.060590905 99568.331
0.27374297 -0.05 0.060413754 99564.692
0.26842674 -0.05 0.060224756 99561.198
0.26318757 -0.05 0.060024162 99557.678
0.25802437 -0.05 0.059812193 99554.4
0.2529361 -0.05 0.059589113 99551.184
0.24792171 -0.05 0.059355147 99548.221
0.24298019 -0.05 0.059110456 99545.374
0.23811051 -0.05 0.058855296 99542.701
0.23331167 -0.05 0.058589887 99540.105
0.2285827 -0.05 0.058314472 99537.615
0.22392262 -0.05 0.058029273 99535.272
0.21933049 -0.05 0.057734439 99533.187
0.21480536 -0.05 0.057430216 99531.121
0.2103463 -0.05 0.057116806 99529.24
0.2059524 -0.05 0.056794322 99527.488
0.20162275 -0.05 0.056463009 99525.864
0.19735648 -0.05 0.056123061 99524.459
0.19315271 -0.05 0.055774691 99523.092
0.18901057 -0.05 0.055418084 99521.901
0.18492921 -0.05 0.055053306 99520.97
0.18090781 -0.05 0.054680591 99520.008
0.17694555 -0.05 0.054300112 99519.339
0.17304159 -0.05 0.053912013 99518.808
0.16919515 -0.05 0.053516484 99518.467
0.16540543 -0.05 0.053113669 99518.161
0.16167166 -0.05 0.05270369 99518.023
0.1579931 -0.05 0.05228666 99517.925
0.15436895 -0.05 0.051862787 99517.904
0.1507985 -0.05 0.05143217 99518.187
0.14728103 -0.05 0.050994935 99518.599
0.1438158 -0.05 0.050551215 99519.239
0.14040211 -0.05 0.050101088 99520.074
0.13703926 -0.05 0.049644697 99521.088
0.13372658 -0.05 0.049182145 99522.402
0.13046338 -0.05 0.048713584 99523.782
0.12724899 -0.05 0.04823911 99525.49
0.12408278 -0.05 0.047758734 99527.479
0.12096409 -0.05 0.047272624 99529.509
0.11789229 -0.05 0.046780889 99531.755
0.11486676 -0.05 0.046283531 99534.268
0.11188691 -0.05 0.045780607 99536.965
0.10895212 -0.05 0.045272237 99539.803
0.10606182 -0.05 0.04475844 99543.108
0.10321542 -0.05 0.044239295 99546.478
0.10041233 -0.05 0.043714944 99549.977
0.097652026 -0.05 0.043185316 99553.971
0.094933951 -0.05 0.042650451 99558.039
0.092257554 -0.05 0.04211048 99562.291
0.089622336 -0.05 0.041565307 99567.101
0.087027775 -0.05 0.041014981 99571.99
0.084473359 -0.05 0.040459558 99577.334
0.081958592 -0.05 0.039899051 99582.705
0.079482987 -0.05 0.039333489 99588.452
0.077046098 -0.05 0.038762756 99594.69
0.074647469 -0.05 0.038186831 99601.338
0.07228663 -0.05 0.037605774 99608.159
0.069963136 -0.05 0.037019594 99615.311
0.067676587 -0.05 0.036428165 99623.01
0.065426571 -0.05 0.035831436 99631.034
0.063212678 -0.05 0.035229391 99639.474
0.061034534 -0.05 0.034621929 99648.429
0.058891771 -0.05 0.034008955 99657.898
0.056784028 -0.05 0.033390394 99667.871
0.054710968 -0.05 0.032766138 99678.4
0.052672242 -0.05 0.032136141 99689.195
0.050667564 -0.05 0.031500206 99700.974
0.048696648 -0.05 0.030858172 99713.312
0.046759191 -0.05 0.030209967 99726.37
0.044854947 -0.05 0.0295554 99740.018
0.042983684 -0.05 0.028894276 99754.534
0.041145219 -0.05 0.028226315 99770.092
0.039339356 -0.05 0.027551317 99786.522
0.037565902 -0.05 0.026869126 99803.772
0.035824734 -0.05 0.026179454 99822.185
0.034115757 -0.05 0.025481989 99841.701
0.032438905 -0.05 0.024776414 99862.573
0.030794137 -0.05 0.024062415 99884.648
0.029181455 -0.05 0.023339636 99908.29
0.027600928 -0.05 0.022607648 99933.523
0.026052635 -0.05 0.021866071 99960.382
0.024536741 -0.05 0.021114426 99989.193
0.023053468 -0.05 0.0203522 100020.01
0.021603093 -0.05 0.019578892 100053.09
0.020186017 -0.05 0.018793886 100088.69
0.018802661 -0.05 0.01799662 100126.8
0.017453621 -0.05 0.017186387 100168.14
0.016139579 -0.05 0.016362447 100212.5
0.014861307 -0.05 0.015524077 100260.3
0.013619772 -0.05 0.014670457 100311.94
0.012416123 -0.05 0.013800757 100368.29
0.011251703 -0.05 0.012914119 100429.16
0.010128089 -0.05 0.012009587 100494.54
0.0090470554 -0.05 0.011086154 100565.1
0.0080106864 -0.05 0.010143014 100640.75
0.0070214916 -0.05 0.0091793926 100721.63
0.0060822289 -0.05 0.008194267 100808.34
0.0051959724 -0.05 0.0071869831 100899.83
0.0043664577 -0.05 0.0061574644 100995.45
0.0035975628 -0.05 0.0051054254 101093.85
0.00289337 -0.05 0.0040311383 101192.77
0.0022585862 -0.05 0.002936032 101289.73
0.0016977505 -0.05 0.0018216849 101379.97
0.0012151448 -0.05 0.00069069428 101458.09
0.00081460178 -0.05 -0.00045281357 101522.18
0.00049909982 -0.05 -0.001604369 101566.83
0.00027026948 -0.05 -0.0027586281 101586.66
0.00012805541 -0.05 -0.0039095327 101580.87
7.0822494e-05 -0.05 -0.0050510532 101548.32
0.99669491 -0.05 0.017235864 100055.93
0.99046319 -0.05 0.017991858 100090.23
0.98423062 -0.05 0.018740842 100068.43
0.97799721 -0.05 0.019482846 100074.52
0.971763 -0.05 0.020217976 100067.69
0.96552799 -0.05 0.02094639 100065.98
0.9592922 -0.05 0.021668072 100061.77
0.95305565 -0.05 0.022383086 100058.4
0.94681834 -0.05 0.023091587 100054.48
0.94058032 -0.05 0.023793659 100050.71
0.93434157 -0.05 0.024489308 100046.7
0.92810212 -0.05 0.025178595 100042.72
0.92186197 -0.05 0.025861596 100038.59
0.91562114 -0.05 0.026538346 100034.46
0.90937967 -0.05 0.027208998 100030.2
0.90313752 -0.05 0.027873548 100026.03
0.89689474 -0.05 0.028532029 100021.7
0.89065135 -0.05 0.029184577 100017.45
0.88440733 -0.05 0.029831207 100013.07
0.87816269 -0.05 0.030471859 100008.73
0.87191746 -0.05 0.031106674 100004.31
0.86567164 -0.05 0.031735719 100000.03
0.85942525 -0.05 0.032358967 99995.585
0.85317829 -0.05 0.032976503 99991.213
0.84693077 -0.05 0.033588391 99986.765
0.8406827 -0.05 0.034194616 99982.383
0.83443408 -0.05 0.034795144 99977.935
0.82818493 -0.05 0.035390149 99973.509
0.82193525 -0.05 0.035979593 99969.069
0.81568506 -0.05 0.036563427 99964.674
0.80943434 -0.05 0.037141732 99960.23
0.80318312 -0.05 0.037714518 99955.835
0.79693139 -0.05 0.038281817 99951.415
0.79067917 -0.05 0.038843583 99947.058
0.78442646 -0.05 0.039399904 99942.655
0.77817326 -0.05 0.039950744 99938.293
0.77191958 -0.05 0.040496072 99933.91
0.76566543 -0.05 0.041035949 99929.608
0.7594108 -0.05 0.041570361 99925.25
0.75315572 -0.05 0.042099297 99920.933
0.74690016 -0.05 0.042622731 99916.604
0.74064415 -0.05 0.043140647 99912.315
0.73438769 -0.05 0.043653029 99908.005
0.72813077 -0.05 0.044159843 99903.71
0.72187341 -0.05 0.044661122 99899.401
0.71561561 -0.05 0.045156896 99895.112
0.70935736 -0.05 0.045646991 99890.845
0.70309867 -0.05 0.046131456 99886.561
0.69683954 -0.05 0.046610259 99882.306
0.69057998 -0.05 0.047083304 99878.034
0.68431999 -0.05 0.047550651 99873.753
0.67805957 -0.05 0.0480122 99869.462
0.67179872 -0.05 0.048467962 99865.154
0.66553745 -0.05 0.048917819 99860.912
0.65927575 -0.05 0.049361672 99856.639
0.65301363 -0.05 0.049799606 99852.346
0.6467511 -0.05 0.050231534 99848.042
0.64048814 -0.05 0.050657291 99843.737
0.63422477 -0.05 0.051076843 99839.414
0.62796099 -0.05 0.051490192 99835.067
0.62169678 -0.05 0.051897202 99830.741
0.61543217 -0.05 0.052297787 99826.39
0.60916714 -0.05 0.052691944 99822.008
0.60290171 -0.05 0.05307953 99817.605
0.59663587 -0.05 0.053460471 99813.17
0.59036962 -0.05 0.053834684 99808.744
0.58410297 -0.05 0.054202079 99804.278
0.57783591 -0.05 0.054562537 99799.813
0.57156845 -0.05 0.054915918 99795.308
0.56530061 -0.05 0.055262186 99790.745
0.55903235 -0.05 0.05560122 99786.183
0.55276371 -0.05 0.055932858 99781.594
0.54649468 -0.05 0.056257029 99776.965
0.54022525 -0.05 0.05657357 99772.336
0.53395544 -0.05 0.056882342 99767.637
0.52768525 -0.05 0.057183274 99762.883
0.52141468 -0.05 0.057476194 99758.106
0.51514373 -0.05 0.05776096 99753.297
0.5088724 -0.05 0.058037405 99748.598
0.50260072 -0.05 0.05830539 99743.859
0.49632868 -0.05 0.058564793 99739.066
0.49005627 -0.05 0.058815415 99734.222
0.48378351 -0.05 0.059057053 99729.4
0.47751041 -0.05 0.059289583 99724.514
0.47123696 -0.05 0.059512868 99719.58
0.46496319 -0.05 0.059726656 99714.561
0.4586891 -0.05 0.059930733 99709.589
0.4524147 -0.05 0.060124937 99704.589
0.44613999 -0.05 0.060309084 99699.586
0.43986499 -0.05 0.06048295 99694.539
0.43358971 -0.05 0.060646293 99689.486
0.42731416 -0.05 0.060798904 99684.411
0.42103834 -0.05 0.060940584 99679.339
0.41476228 -0.05 0.061071083 99674.23
0.40848601 -0.05 0.061190126 99669.149
0.40220952 -0.05 0.061297486 99663.987
0.39593283 -0.05 0.061392878 99658.898
0.38965597 -0.05 0.061475995 99653.823
0.38337897 -0.05 0.061546621 99648.746
0.37710183 -0.05 0.061604516 99643.585
0.37082457 -0.05 0.061649283 99638.526
0.36454724 -0.05 0.061680601 99633.427
0.35826986 -0.05 0.061698229 99628.413
0.35199246 -0.05 0.06170183 99623.363
0.34571506 -0.05 0.061691049 99618.327
0.3394377 -0.05 0.0616655 99613.371
0.33316043 -0.05 0.061624854 99608.447
0.32688327 -0.05 0.06156872 99603.584
0.32060627 -0.05 0.061496676 99598.73
0.31432949 -0.05 0.061408331 99594.011
0.30805297 -0.05 0.061303273 99589.283
0.30177675 -0.05 0.061181069 99583.764
