# wallShearStress  FACE_DATA 448
# x y z  wallShearStress_x wallShearStress_y wallShearStress_z
0.29849761 -0.05 -0.058928861 -7.1421141 -1.7061257e-16 -0.15388458
0.29286151 -0.05 -0.05904213 -7.0464115 -1.0867917e-16 -0.13299535
0.28730627 -0.05 -0.059139201 -6.9276296 -1.3469541e-17 -0.11267776
0.28183076 -0.05 -0.059220311 -6.8160011 -1.7298638e-18 -0.092885303
0.27643388 -0.05 -0.059285754 -6.7101189 -1.503689e-17 -0.074149138
0.27111453 -0.05 -0.059335848 -6.610333 -3.5648259e-17 -0.055732042
0.26587163 -0.05 -0.059370896 -6.5164287 2.8719992e-17 -0.036085382
0.26070412 -0.05 -0.059391167 -6.4284277 -6.1713798e-20 -0.017354423
0.25561097 -0.05 -0.05939697 -6.3456327 -2.1449167e-19 0.00090019322
0.25059113 -0.05 -0.059388579 -6.2676751 -1.9485827e-17 0.01943198
0.24564359 -0.05 -0.059366198 -6.1934739 -5.1604001e-18 0.037021702
0.24076737 -0.05 -0.059330131 -6.1228272 4.1562171e-17 0.053271338
0.23596146 -0.05 -0.059280642 -6.0547393 -5.1687252e-17 0.0696001
0.23122489 -0.05 -0.059218017 -5.9890766 2.1408327e-18 0.086251289
0.2265567 -0.05 -0.059142521 -5.9267317 -1.0526161e-16 0.10299562
0.22195596 -0.05 -0.059054349 -5.8673906 6.3528539e-17 0.1196175
0.21742173 -0.05 -0.058953786 -5.8113299 -8.33181e-17 0.1360712
0.21295308 -0.05 -0.058841074 -5.7587077 -6.3701374e-17 0.15259769
0.20854913 -0.05 -0.05871637 -5.7085869 -6.8477325e-17 0.16900425
0.20420898 -0.05 -0.058579959 -5.6614079 -8.6340947e-17 0.18533843
0.19993174 -0.05 -0.058432073 -5.6172814 2.0177969e-16 0.20169314
0.19571655 -0.05 -0.058272966 -5.5761905 9.6783287e-17 0.21804032
0.19156258 -0.05 -0.05810286 -5.5382863 -2.04261e-16 0.23459549
0.18746895 -0.05 -0.057921858 -5.5024963 1.0589055e-16 0.25117192
0.18343487 -0.05 -0.057730235 -5.4690723 1.3917425e-16 0.2677452
0.17945951 -0.05 -0.057528198 -5.4383412 -1.1925345e-16 0.28455181
0.17554205 -0.05 -0.057315928 -5.4096258 2.1235101e-17 0.30137506
0.17168172 -0.05 -0.057093651 -5.3836954 -1.9041756e-17 0.31845572
0.16787773 -0.05 -0.056861547 -5.3601406 1.2327004e-16 0.33572894
0.16412931 -0.05 -0.056619771 -5.3389836 -1.771638e-16 0.35330397
0.16043572 -0.05 -0.056368471 -5.3197831 -1.8201976e-16 0.37101007
0.15679619 -0.05 -0.056107889 -5.3032772 3.0432987e-16 0.38905094
0.15321 -0.05 -0.055838157 -5.2892034 2.3693703e-16 0.40746703
0.14967643 -0.05 -0.055559432 -5.2772221 -7.0280086e-17 0.42613828
0.14619476 -0.05 -0.055271883 -5.2676111 2.8781848e-16 0.44529273
0.14276429 -0.05 -0.054975616 -5.2596248 3.0546027e-17 0.46476094
0.13938433 -0.05 -0.054670807 -5.2532791 3.0588269e-16 0.48458112
0.13605421 -0.05 -0.054357588 -5.2485216 -1.023164e-16 0.50474
0.13277324 -0.05 -0.054036143 -5.2457525 -1.8321835e-16 0.52532589
0.12954078 -0.05 -0.053706597 -5.245363 -4.4889443e-17 0.54664647
0.12635619 -0.05 -0.053368991 -5.2463671 -3.6676481e-16 0.56833561
0.1232188 -0.05 -0.053023521 -5.2495258 3.0229793e-17 0.59051601
0.120128 -0.05 -0.052670325 -5.2552672 3.3575923e-17 0.61357308
0.11708318 -0.05 -0.05230943 -5.2626163 -6.8113817e-16 0.63731188
0.11408374 -0.05 -0.051940924 -5.2715758 -5.9501276e-16 0.6617283
0.11112908 -0.05 -0.051564952 -5.2823159 -1.8103869e-16 0.68685082
0.10821861 -0.05 -0.05118156 -5.2943375 7.8494166e-17 0.71263611
0.10535175 -0.05 -0.050790851 -5.307272 1.3504978e-16 0.73890329
0.10252793 -0.05 -0.050392996 -5.3226636 -2.7354341e-16 0.76639778
0.099746608 -0.05 -0.049987946 -5.3394013 3.2604594e-16 0.79478443
0.097007242 -0.05 -0.049575768 -5.3573506 -3.0055937e-16 0.82386995
0.094309284 -0.05 -0.049156614 -5.3778659 1.950897e-17 0.85439948
0.09165223 -0.05 -0.048730413 -5.3995548 -1.1123663e-16 0.88591751
0.089035559 -0.05 -0.048297239 -5.4216681 3.5997511e-16 0.91814153
0.086458762 -0.05 -0.047857169 -5.4456679 -1.725957e-16 0.95162978
0.083921348 -0.05 -0.047410237 -5.4711929 4.8234019e-16 0.98625089
0.081422829 -0.05 -0.046956496 -5.4999513 2.5134452e-16 1.0228644
0.078962755 -0.05 -0.046495848 -5.529845 6.6917174e-16 1.0607529
0.076540667 -0.05 -0.046028295 -5.5601616 2.7717394e-16 1.0996694
0.074156101 -0.05 -0.045553918 -5.5908141 -1.4151728e-16 1.1398315
0.071808614 -0.05 -0.045072744 -5.6221106 -5.2886727e-17 1.1816718
0.069497797 -0.05 -0.044584666 -5.6534518 -2.0609208e-16 1.224848
0.067223237 -0.05 -0.044089652 -5.6854237 -5.151114e-17 1.2695747
0.064984526 -0.05 -0.043587704 -5.7202678 2.5770407e-17 1.3169205
0.062781283 -0.05 -0.043078738 -5.7576658 5.6417099e-16 1.3668485
0.060613139 -0.05 -0.042562674 -5.7967174 -5.683813e-17 1.4190082
0.058479729 -0.05 -0.042039458 -5.8363542 1.7323175e-18 1.4730999
0.056380711 -0.05 -0.041508991 -5.8758098 2.9373576e-16 1.5288606
0.054315733 -0.05 -0.040971247 -5.9154025 -2.0707632e-16 1.5869693
0.052284502 -0.05 -0.040426041 -5.9557428 5.6362093e-17 1.6479977
0.050286725 -0.05 -0.039873226 -5.9954605 3.1706781e-16 1.711601
0.048322097 -0.05 -0.039312742 -6.0370827 5.7321763e-16 1.7789648
0.046390361 -0.05 -0.038744409 -6.0775852 9.3101254e-17 1.8491282
0.044491279 -0.05 -0.038168044 -6.1175255 -1.7696248e-16 1.9225138
0.042624654 -0.05 -0.037583376 -6.1564598 -6.8886338e-16 1.9987332
0.040790282 -0.05 -0.036990213 -6.1961384 -3.6874912e-16 2.079349
0.038987964 -0.05 -0.036388407 -6.2403648 -1.4314774e-16 2.1668648
0.037217561 -0.05 -0.035777676 -6.2875991 -1.0864439e-16 2.2602746
0.035478968 -0.05 -0.035157714 -6.3326709 4.5405653e-16 2.3573081
0.033772103 -0.05 -0.034528208 -6.3732481 4.5997578e-17 2.4572156
0.03209691 -0.05 -0.033888843 -6.4077502 -1.597933e-17 2.5610535
0.030453377 -0.05 -0.033239265 -6.4397172 6.0785112e-16 2.6733553
0.028841552 -0.05 -0.032579042 -6.4709218 -2.4148713e-16 2.7943301
0.027261499 -0.05 -0.031907793 -6.4955398 9.9886842e-16 2.918738
0.025713357 -0.05 -0.031225028 -6.5089664 -1.1172173e-17 3.0455384
0.02419733 -0.05 -0.030530229 -6.5207581 5.1277105e-16 3.1779905
0.02271367 -0.05 -0.029822879 -6.5363516 -2.480095e-16 3.3207908
0.021262748 -0.05 -0.029102346 -6.5500034 3.1169064e-16 3.4719385
0.019844963 -0.05 -0.028368051 -6.5352649 3.9766635e-16 3.6201896
0.018460875 -0.05 -0.027619261 -6.4666791 -3.5623423e-16 3.7598344
0.017111134 -0.05 -0.026855204 -6.3297136 5.3961466e-16 3.8912763
0.015796477 -0.05 -0.026075125 -6.1323846 -1.1038328e-16 4.0247353
0.014517836 -0.05 -0.025278158 -5.9043303 6.883853e-16 4.1852942
0.013276321 -0.05 -0.024463427 -5.7065822 -1.325478e-16 4.416604
0.012073233 -0.05 -0.023630012 -5.5349323 1.956681e-17 4.7395567
0.010910106 -0.05 -0.022776887 -5.3938392 -8.9119539e-16 5.1613991
0.0097886671 -0.05 -0.021902967 -5.2883804 -9.9116114e-16 5.6657298
0.0087109622 -0.05 -0.021007354 -5.2484206 -1.7521416e-16 6.2414881
0.0076794633 -0.05 -0.020089157 -5.3078776 7.1110425e-17 6.8749553
0.0066968796 -0.05 -0.019147236 -5.3546837 3.7830148e-16 7.4852747
0.0057662528 -0.05 -0.018180797 -5.2996385 -5.7665833e-18 7.9971659
0.0048913113 -0.05 -0.017189595 -5.1061497 -9.6721569e-18 8.3696731
0.0040759164 -0.05 -0.016173171 -4.7395843 -1.6076661e-16 8.5529809
0.0033241583 -0.05 -0.015131615 -4.2318164 2.9775918e-17 8.5398934
0.0026408036 -0.05 -0.014066141 -3.6241454 4.4662213e-16 8.2981562
0.0020304575 -0.05 -0.012978122 -2.9595884 2.4464086e-16 7.8408743
0.0014975146 -0.05 -0.011869962 -2.2849324 1.4429784e-16 7.1743304
0.001045989 -0.05 -0.01074561 -1.637599 -5.0096804e-17 6.3095873
0.00067905681 -0.05 -0.0096093954 -1.0625335 -9.0390488e-18 5.3041418
0.00039858721 -0.05 -0.0084665855 -0.64647159 1.1405192e-16 4.2120992
0.00020479714 -0.05 -0.0073232344 -0.36438773 -9.2614342e-17 3.0804718
9.6324052e-05 -0.05 -0.006185439 -0.20519196 -5.547414e-18 1.9804839
0.99671512 -0.05 0.016336739 -53.134875 -9.8516693e-17 -8.5046199
0.99052367 -0.05 0.015301467 -48.219845 -1.2730682e-15 -7.9793691
0.98433105 -0.05 0.014273158 -47.934715 2.9327102e-16 -7.9173421
0.97813729 -0.05 0.013251784 -47.763915 -2.1800417e-16 -7.8341999
0.97194241 -0.05 0.012237242 -47.51965 -2.9403794e-16 -7.7415037
0.96574644 -0.05 0.011229373 -47.24606 -9.3281106e-16 -7.6450698
0.95954938 -0.05 0.010228195 -46.951598 1.1484329e-15 -7.5456735
0.95335125 -0.05 0.0092336434 -46.638979 1.9957793e-16 -7.4456304
0.94715209 -0.05 0.008245565 -46.313999 6.3045031e-16 -7.3445424
0.94095192 -0.05 0.0072638756 -45.97674 3.0125416e-16 -7.2430109
0.93475074 -0.05 0.0062885705 -45.631374 -2.926039e-16 -7.1406807
0.92854856 -0.05 0.0053195898 -45.277366 1.1944124e-15 -7.0389362
0.92234541 -0.05 0.0043568573 -44.916164 1.0564056e-15 -6.9367158
0.9161413 -0.05 0.0034003385 -44.545653 1.3572891e-15 -6.8349636
0.90993626 -0.05 0.0024498828 -44.169156 -3.7291918e-16 -6.7334027
0.90373029 -0.05 0.0015054927 -43.784236 -9.1313427e-16 -6.6313694
0.89752341 -0.05 0.00056713719 -43.392279 -2.3017086e-16 -6.5297834
0.89131565 -0.05 -0.00036531928 -42.993519 -1.5542485e-16 -6.4283669
0.88510699 -0.05 -0.0012918902 -42.591089 -1.438738e-15 -6.3268992
0.87889745 -0.05 -0.002212519 -42.185032 -1.1531585e-16 -6.226005
0.87268707 -0.05 -0.0031273425 -41.779091 -1.5157036e-15 -6.1267883
0.86647582 -0.05 -0.0040364287 -41.372627 1.2808526e-15 -6.028005
0.86026375 -0.05 -0.0049397486 -40.967347 -1.3223672e-16 -5.9306365
0.85405085 -0.05 -0.0058373887 -40.562392 -2.2693945e-16 -5.8344536
0.84783714 -0.05 -0.0067294111 -40.158847 -3.3257204e-16 -5.7393669
0.84162262 -0.05 -0.007615802 -39.75514 1.2976955e-15 -5.6449199
0.83540731 -0.05 -0.0084965252 -39.350711 -9.653179e-16 -5.5515494
0.8291912 -0.05 -0.0093717555 -38.944162 -1.1832112e-15 -5.4594733
0.82297433 -0.05 -0.010241453 -38.53306 1.4735639e-17 -5.36665
0.81675668 -0.05 -0.011105571 -38.116366 -3.37604e-16 -5.2746304
0.81053827 -0.05 -0.011964188 -37.695943 1.1689072e-15 -5.1824951
0.80431909 -0.05 -0.012817315 -37.272359 9.4032355e-16 -5.0910669
0.79809917 -0.05 -0.013664982 -36.848542 -6.9534651e-16 -4.9999949
0.79187852 -0.05 -0.014507146 -36.426203 2.3699082e-16 -4.9100589
0.78565712 -0.05 -0.015343891 -36.008762 6.2506179e-16 -4.8217041
0.779435 -0.05 -0.016175182 -35.595024 2.3579719e-16 -4.7341417
0.77321214 -0.05 -0.017000989 -35.184885 5.0794053e-16 -4.6482141
0.76698857 -0.05 -0.017821372 -34.777472 1.7142671e-15 -4.5633713
0.76076427 -0.05 -0.018636316 -34.372256 -2.0803938e-15 -4.479544
0.75453928 -0.05 -0.019445811 -33.966808 -6.5369032e-16 -4.3963945
0.74831357 -0.05 -0.02024983 -33.558315 1.2223165e-15 -4.3135667
0.74208715 -0.05 -0.021048356 -33.144325 1.7616691e-15 -4.2307834
0.73586003 -0.05 -0.021841376 -32.724273 -4.9829182e-16 -4.1478269
0.72963221 -0.05 -0.022628853 -32.298934 1.4121154e-16 -4.0648094
0.7234037 -0.05 -0.02341082 -31.872906 3.7180615e-16 -3.9824462
0.7171745 -0.05 -0.024187308 -31.450139 4.8485743e-16 -3.900764
0.71094459 -0.05 -0.024958143 -31.032184 1.6006279e-16 -3.8199115
0.704714 -0.05 -0.025723373 -30.62065 7.8746209e-16 -3.7411382
0.69848272 -0.05 -0.026482967 -30.21496 -8.0139332e-17 -3.6629671
0.69225073 -0.05 -0.02723683 -29.813769 -4.0161538e-16 -3.586643
0.68601806 -0.05 -0.027985017 -29.415595 2.507579e-16 -3.5110956
0.67978471 -0.05 -0.028727432 -29.015237 -2.0520974e-16 -3.4360583
0.67355067 -0.05 -0.029464085 -28.608446 -8.6918943e-16 -3.3609744
0.66731594 -0.05 -0.030194859 -28.190176 1.479685e-16 -3.2847794
0.66108051 -0.05 -0.030919654 -27.762019 4.6305684e-17 -3.2082448
0.65484441 -0.05 -0.031638554 -27.330658 -9.6660781e-16 -3.131804
0.64860761 -0.05 -0.032351474 -26.901983 1.3629518e-15 -3.0556722
0.64237011 -0.05 -0.033058246 -26.477853 7.6989695e-17 -2.9806999
0.63613192 -0.05 -0.033758839 -26.058432 1.0004016e-15 -2.9070093
0.62989304 -0.05 -0.034453255 -25.644619 2.6243973e-16 -2.8345537
0.62365346 -0.05 -0.035141356 -25.234571 -4.5500951e-16 -2.7629539
0.61741317 -0.05 -0.035823058 -24.824766 7.8180042e-16 -2.6924961
0.61117218 -0.05 -0.036498356 -24.409534 -8.0147198e-16 -2.6222051
0.6049305 -0.05 -0.037167108 -23.979992 1.1470675e-16 -2.5510569
0.59868811 -0.05 -0.03782924 -23.530924 -5.6309968e-16 -2.4785885
0.592445 -0.05 -0.03848467 -23.065929 -9.7042029e-16 -2.4045901
0.58620119 -0.05 -0.039133306 -22.599614 2.1503001e-16 -2.3308056
0.57995666 -0.05 -0.039775032 -22.1424 7.399632e-16 -2.258298
0.57371142 -0.05 -0.040409704 -21.693878 -5.1975915e-18 -2.1874953
0.56746546 -0.05 -0.041037288 -21.254604 1.3355886e-15 -2.1183523
0.56121878 -0.05 -0.041657664 -20.823676 -5.0972396e-16 -2.0506836
0.55497138 -0.05 -0.04227067 -20.398468 2.8188213e-16 -1.984547
0.54872324 -0.05 -0.042876233 -19.97355 -5.4605438e-16 -1.9196055
0.54247438 -0.05 -0.043474191 -19.537358 3.2127846e-16 -1.8546641
0.53622477 -0.05 -0.044064405 -19.077619 3.0339955e-17 -1.7890187
0.52997444 -0.05 -0.044646805 -18.595914 -6.0207431e-16 -1.7215395
0.52372337 -0.05 -0.045221218 -18.118092 -1.2384846e-16 -1.6545877
0.51747154 -0.05 -0.045787503 -17.647116 1.3564007e-17 -1.5889491
0.51121898 -0.05 -0.04634549 -17.184499 6.7418926e-16 -1.5245584
0.50496568 -0.05 -0.046895044 -16.732503 -8.3257492e-17 -1.461795
0.49871163 -0.05 -0.047436039 -16.289761 2.4892494e-16 -1.4004194
0.49245681 -0.05 -0.04796828 -15.853776 4.8092525e-16 -1.3402165
0.48620125 -0.05 -0.048491562 -15.424286 -1.6169613e-16 -1.2806925
0.47994493 -0.05 -0.049005759 -15.00131 -1.5909095e-16 -1.2228689
0.47368787 -0.05 -0.049510735 -14.58529 5.2673215e-16 -1.166476
0.46743005 -0.05 -0.05000624 -14.174894 -4.4567794e-16 -1.1114408
0.46117147 -0.05 -0.050492057 -13.769906 1.5256435e-16 -1.0578099
0.45491213 -0.05 -0.050968026 -13.370344 2.6746753e-16 -1.0056912
0.44865204 -0.05 -0.051433963 -12.980176 -1.1482105e-16 -0.95526278
0.44239119 -0.05 -0.05188964 -12.602634 -4.6325362e-17 -0.90652613
0.43612958 -0.05 -0.052334819 -12.239 -2.8555826e-16 -0.85958877
0.42986722 -0.05 -0.052769289 -11.889893 -6.0377113e-16 -0.81455479
0.42360412 -0.05 -0.05319285 -11.553899 8.4801018e-17 -0.7712699
0.41734027 -0.05 -0.053605252 -11.233278 -1.8251145e-17 -0.72944078
0.41107568 -0.05 -0.054006219 -10.929551 -1.4207532e-16 -0.68939099
0.40481036 -0.05 -0.054395525 -10.642891 -1.2983489e-16 -0.65120012
0.3985443 -0.05 -0.054772885 -10.370903 -4.9527484e-17 -0.61452917
0.39227752 -0.05 -0.055137989 -10.110204 3.4067842e-16 -0.57921905
0.38601003 -0.05 -0.055490622 -9.8599341 -5.2956898e-16 -0.54514024
0.37974183 -0.05 -0.055830543 -9.6194728 -3.5748684e-16 -0.51207765
0.37347293 -0.05 -0.056157353 -9.387804 2.5019236e-16 -0.47985287
0.36720334 -0.05 -0.056470731 -9.1640367 -2.3499092e-16 -0.44868217
0.3609331 -0.05 -0.056770436 -8.9485676 -5.9074157e-17 -0.41837461
0.35466219 -0.05 -0.05705613 -8.7406815 -1.8930313e-17 -0.38887282
0.34839065 -0.05 -0.057327456 -8.5402565 -1.1158192e-16 -0.36010598
0.34211849 -0.05 -0.057584027 -8.3466855 -7.2793687e-17 -0.33205585
0.33584573 -0.05 -0.057825511 -8.1601942 1.7647133e-16 -0.30475051
0.32957239 -0.05 -0.058051519 -7.9802315 1.1048177e-16 -0.27800264
0.32329851 -0.05 -0.058261624 -7.8060896 4.1013629e-17 -0.25191606
0.31702409 -0.05 -0.058455436 -7.6382744 -1.7851111e-16 -0.22643491
0.31074918 -0.05 -0.058632541 -7.4774849 -1.1851861e-16 -0.20154218
0.30447381 -0.05 -0.058792503 -7.2884238 5.5236383e-17 -0.17592198
0.29580046 -0.05 0.061048729 -6.8570411 1.2788372e-17 -0.17568023
0.29016496 -0.05 0.060908607 -7.0496691 -1.3693997e-16 -0.19975325
0.28461097 -0.05 0.060755936 -7.294382 -4.2484587e-17 -0.22628372
0.27913734 -0.05 0.060590905 -7.5352583 8.741444e-19 -0.25387203
0.27374297 -0.05 0.060413754 -7.7763679 1.6750249e-16 -0.2828518
0.26842674 -0.05 0.060224756 -8.0163518 2.4583897e-16 -0.31343163
0.26318757 -0.05 0.060024162 -8.257211 -3.0384209e-17 -0.34559626
0.25802437 -0.05 0.059812193 -8.4996149 1.9150834e-16 -0.37952456
0.2529361 -0.05 0.059589113 -8.7426405 -1.0997116e-16 -0.41487166
0.24792171 -0.05 0.059355147 -8.984773 -2.399094e-16 -0.45199491
0.24298019 -0.05 0.059110456 -9.2256715 -2.1866052e-16 -0.49059693
0.23811051 -0.05 0.058855296 -9.4658171 2.8706103e-16 -0.53082984
0.23331167 -0.05 0.058589887 -9.703905 -9.5356163e-17 -0.57254193
0.2285827 -0.05 0.058314472 -9.9383609 -1.0964629e-16 -0.61578418
0.22392262 -0.05 0.058029273 -10.171308 3.1064824e-16 -0.66079169
0.21933049 -0.05 0.057734439 -10.402816 -2.7753315e-16 -0.70747986
0.21480536 -0.05 0.057430216 -10.631839 -8.7141837e-17 -0.75548745
0.2103463 -0.05 0.057116806 -10.857171 -2.5407644e-17 -0.80520042
0.2059524 -0.05 0.056794322 -11.076314 -3.8092766e-16 -0.85615688
0.20162275 -0.05 0.056463009 -11.288177 9.1474225e-17 -0.90821342
0.19735648 -0.05 0.056123061 -11.491629 -7.010242e-17 -0.96146457
0.19315271 -0.05 0.055774691 -11.688574 -3.1652824e-16 -1.015891
0.18901057 -0.05 0.055418084 -11.88063 -6.9018392e-17 -1.0719685
0.18492921 -0.05 0.055053306 -12.071368 1.734251e-16 -1.1296631
0.18090781 -0.05 0.054680591 -12.264984 1.3048488e-16 -1.1887421
0.17694555 -0.05 0.054300112 -12.456174 -1.9860588e-16 -1.2491381
0.17304159 -0.05 0.053912013 -12.638468 7.2924832e-17 -1.3100772
0.16919515 -0.05 0.053516484 -12.805072 2.8808204e-16 -1.3718289
0.16540543 -0.05 0.053113669 -12.952597 3.9643586e-16 -1.4343374
0.16167166 -0.05 0.05270369 -13.083107 -7.3614778e-17 -1.4986214
0.1579931 -0.05 0.05228666 -13.207357 -7.8831005e-17 -1.5655164
0.15436895 -0.05 0.051862787 -13.343504 1.1632076e-16 -1.6366518
0.1507985 -0.05 0.05143217 -13.495741 -2.2792542e-16 -1.7123842
0.14728103 -0.05 0.050994935 -13.666387 -5.0902779e-16 -1.7922578
0.1438158 -0.05 0.050551215 -13.848246 -1.1820936e-17 -1.8759311
0.14040211 -0.05 0.050101088 -14.042615 -4.677261e-16 -1.9635132
0.13703926 -0.05 0.049644697 -14.253176 -1.283461e-16 -2.0554592
0.13372658 -0.05 0.049182145 -14.483611 -4.2588611e-17 -2.1523944
0.13046338 -0.05 0.048713584 -14.733736 -8.1705561e-17 -2.2545787
0.12724899 -0.05 0.04823911 -14.998239 -6.7297806e-16 -2.3623467
0.12408278 -0.05 0.047758734 -15.268837 7.6999236e-16 -2.4742084
0.12096409 -0.05 0.047272624 -15.541054 4.8446179e-17 -2.5896649
0.11789229 -0.05 0.046780889 -15.811503 5.7362119e-16 -2.7089516
0.11486676 -0.05 0.046283531 -16.076434 2.6707449e-16 -2.8313312
0.11188691 -0.05 0.045780607 -16.334273 7.2631186e-16 -2.9564429
0.10895212 -0.05 0.045272237 -16.584269 4.7356885e-16 -3.0843226
0.10606182 -0.05 0.04475844 -16.824335 -2.9554162e-16 -3.2146733
0.10321542 -0.05 0.044239295 -17.053679 4.5497373e-16 -3.3467507
0.10041233 -0.05 0.043714944 -17.273425 8.6041998e-17 -3.4817178
0.097652026 -0.05 0.043185316 -17.481268 -5.6907092e-16 -3.6189705
0.094933951 -0.05 0.042650451 -17.676815 2.5987154e-16 -3.7577057
0.092257554 -0.05 0.04211048 -17.860905 6.157065e-16 -3.8990251
0.089622336 -0.05 0.041565307 -18.031848 -2.0638136e-16 -4.0433943
0.087027775 -0.05 0.041014981 -18.191219 7.1962725e-16 -4.1893402
0.084473359 -0.05 0.040459558 -18.339215 5.7813505e-16 -4.3375269
0.081958592 -0.05 0.039899051 -18.476014 4.5861755e-16 -4.4876592
0.079482987 -0.05 0.039333489 -18.601515 -5.1356715e-16 -4.6406113
0.077046098 -0.05 0.038762756 -18.713729 2.4738157e-16 -4.7952888
0.074647469 -0.05 0.038186831 -18.812647 4.3618692e-17 -4.9511976
0.07228663 -0.05 0.037605774 -18.899577 6.7489321e-16 -5.1089494
0.069963136 -0.05 0.037019594 -18.974306 -5.0458297e-16 -5.2692191
0.067676587 -0.05 0.036428165 -19.035203 -4.7779061e-16 -5.431224
0.065426571 -0.05 0.035831436 -19.082522 -6.4095211e-16 -5.5946846
0.063212678 -0.05 0.035229391 -19.116506 -9.8799483e-17 -5.7601454
0.061034534 -0.05 0.034621929 -19.136168 1.2113913e-16 -5.9271959
0.058891771 -0.05 0.034008955 -19.141276 -3.8364864e-16 -6.0954934
0.056784028 -0.05 0.033390394 -19.131879 -7.0532797e-17 -6.2650425
0.054710968 -0.05 0.032766138 -19.108082 7.4169039e-16 -6.4355293
0.052672242 -0.05 0.032136141 -19.071328 -5.1342314e-16 -6.6078897
0.050667564 -0.05 0.031500206 -19.019337 2.206253e-16 -6.7815078
0.048696648 -0.05 0.030858172 -18.950833 3.4419198e-16 -6.955579
0.046759191 -0.05 0.030209967 -18.864645 8.1320841e-16 -7.1306321
0.044854947 -0.05 0.0295554 -18.760937 2.0850787e-16 -7.3064946
0.042983684 -0.05 0.028894276 -18.638124 4.4403092e-16 -7.4827809
0.041145219 -0.05 0.028226315 -18.49435 -4.4171633e-17 -7.6580206
0.039339356 -0.05 0.027551317 -18.330087 5.8097564e-16 -7.8319793
0.037565902 -0.05 0.026869126 -18.145496 -1.1242823e-16 -8.0053183
0.035824734 -0.05 0.026179454 -17.938801 7.9810668e-16 -8.177156
0.034115757 -0.05 0.025481989 -17.709048 -1.2505052e-16 -8.3465704
0.032438905 -0.05 0.024776414 -17.455108 -6.2997211e-16 -8.5125697
0.030794137 -0.05 0.024062415 -17.17672 1.5953108e-17 -8.6747749
0.029181455 -0.05 0.023339636 -16.87241 4.1420737e-17 -8.8321144
0.027600928 -0.05 0.022607648 -16.540861 9.6770745e-16 -8.9828376
0.026052635 -0.05 0.021866071 -16.182005 2.888092e-18 -9.1268329
0.024536741 -0.05 0.021114426 -15.794071 1.0762855e-15 -9.2624093
0.023053468 -0.05 0.0203522 -15.375308 -7.5168223e-16 -9.3868713
0.021603093 -0.05 0.019578892 -14.925305 6.358406e-16 -9.4996864
0.020186017 -0.05 0.018793886 -14.443071 2.3514111e-17 -9.5970414
0.018802661 -0.05 0.01799662 -13.927973 9.6986689e-16 -9.6776801
0.017453621 -0.05 0.017186387 -13.377886 6.4552925e-16 -9.7366073
0.016139579 -0.05 0.016362447 -12.792765 4.5875031e-16 -9.7713606
0.014861307 -0.05 0.015524077 -12.172913 -3.259697e-16 -9.7784579
0.013619772 -0.05 0.014670457 -11.51757 -5.4266121e-16 -9.7532834
0.012416123 -0.05 0.013800757 -10.825193 -9.7810107e-16 -9.6877436
0.011251703 -0.05 0.012914119 -10.096421 -3.1211368e-16 -9.5771416
0.010128089 -0.05 0.012009587 -9.3347468 2.2814011e-16 -9.4179185
0.0090470554 -0.05 0.011086154 -8.545334 2.3402974e-16 -9.2020643
0.0080106864 -0.05 0.010143014 -7.7288803 3.4617351e-16 -8.9241382
0.0070214916 -0.05 0.0091793926 -6.8903602 3.233841e-18 -8.5730896
0.0060822289 -0.05 0.008194267 -6.0381416 9.1878581e-17 -8.1342425
0.0051959724 -0.05 0.0071869831 -5.1847831 1.2714086e-17 -7.5996635
0.0043664577 -0.05 0.0061574644 -4.3444923 -1.7934965e-16 -6.9698534
0.0035975628 -0.05 0.0051054254 -3.533355 9.881579e-17 -6.244095
0.00289337 -0.05 0.0040311383 -2.7555776 -1.451424e-16 -5.4242592
0.0022585862 -0.05 0.002936032 -2.0318212 2.6131771e-16 -4.525421
0.0016977505 -0.05 0.0018216849 -1.4074772 -1.7637238e-16 -3.5637821
0.0012151448 -0.05 0.00069069428 -0.89551266 -1.0587665e-16 -2.5621111
0.00081460178 -0.05 -0.00045281357 -0.519922 2.1968629e-16 -1.554625
0.00049909982 -0.05 -0.001604369 -0.29883145 8.0524313e-17 -0.80194853
0.00027026948 -0.05 -0.0027586281 -0.18240247 1.1787361e-16 -0.17035151
0.00012805541 -0.05 -0.0039095327 -0.1265353 4.2687611e-17 0.40947058
7.0822494e-05 -0.05 -0.0050510532 -0.13594551 2.3713683e-18 1.0819978
0.99669491 -0.05 0.017235864 0.21000453 -4.3825003e-16 0.10196706
0.99046319 -0.05 0.017991858 -0.010302739 6.599093e-17 -0.00077903997
0.98423062 -0.05 0.018740842 0.015108607 -2.5353485e-16 -0.00078594951
0.97799721 -0.05 0.019482846 0.0010476064 8.5218953e-17 9.8659908e-05
0.971763 -0.05 0.020217976 0.0094810385 -6.5187869e-16 -0.00073335679
0.96552799 -0.05 0.02094639 0.0066659634 -2.0060792e-16 -0.0004748176
0.9592922 -0.05 0.021668072 0.0086298003 -3.5169445e-16 -0.00067613676
0.95305565 -0.05 0.022383086 0.008394262 -2.4721412e-16 -0.00059317297
0.94681834 -0.05 0.023091587 0.0091635456 -9.9718083e-16 -0.00063129186
0.94058032 -0.05 0.023793659 0.0096812208 -2.9625442e-16 -0.00063536198
0.93434157 -0.05 0.024489308 0.010719826 5.6574961e-16 -0.00061242551
0.92810212 -0.05 0.025178595 0.01337443 -9.515722e-17 -0.00062276336
0.92186197 -0.05 0.025861596 0.017374132 1.2644764e-16 -0.00084666073
0.91562114 -0.05 0.026538346 0.015946598 2.2752342e-16 -0.0010403019
0.90937967 -0.05 0.027208998 0.017327718 -1.6383148e-16 -0.0013875058
0.90313752 -0.05 0.027873548 0.01488492 1.3051857e-16 -0.0010659861
0.89689474 -0.05 0.028532029 0.016437042 -2.1319493e-16 -0.0012348631
0.89065135 -0.05 0.029184577 0.014252565 -3.2416283e-16 -0.0010173843
0.88440733 -0.05 0.029831207 0.014921137 -1.3515543e-16 -0.0010275539
0.87816269 -0.05 0.030471859 0.013959863 -2.5047448e-16 -0.00096635622
0.87191746 -0.05 0.031106674 0.013023912 -2.58788e-16 -0.00086253946
0.86567164 -0.05 0.031735719 0.011445216 -1.3597107e-16 -0.00069868084
0.85942525 -0.05 0.032358967 0.0094613507 -5.9352356e-16 -0.00047359604
0.85317829 -0.05 0.032976503 0.006992445 -1.160719e-16 -0.0002188381
0.84693077 -0.05 0.033588391 0.0041001382 -2.0100362e-16 5.7388593e-05
0.8406827 -0.05 0.034194616 0.00085035069 -1.2857072e-16 0.00035340267
0.83443408 -0.05 0.034795144 -0.0024893024 -2.2999862e-16 0.00059907297
0.82818493 -0.05 0.035390149 -0.0051210492 5.5844367e-17 0.00085834104
0.82193525 -0.05 0.035979593 -0.0080389107 -1.6619102e-16 0.0011183562
0.81568506 -0.05 0.036563427 -0.011124132 -8.2936458e-17 0.0013879621
0.80943434 -0.05 0.037141732 -0.014528391 5.6623663e-17 0.0016929733
0.80318312 -0.05 0.037714518 -0.018304433 1.8779851e-16 0.0020251508
0.79693139 -0.05 0.038281817 -0.022464523 -3.5461848e-17 0.002376315
0.79067917 -0.05 0.038843583 -0.026900207 2.3011382e-16 0.0027435038
0.78442646 -0.05 0.039399904 -0.03174138 -1.3822998e-16 0.003140839
0.77817326 -0.05 0.039950744 -0.037059186 -1.4549993e-16 0.0035688707
0.77191958 -0.05 0.040496072 -0.042918497 -3.3046785e-17 0.004018983
0.76566543 -0.05 0.041035949 -0.049294294 -1.1550379e-16 0.0045002737
0.7594108 -0.05 0.041570361 -0.056252052 8.6727995e-18 0.0050291715
0.75315572 -0.05 0.042099297 -0.063851431 -1.8712448e-16 0.005593491
0.74690016 -0.05 0.042622731 -0.072093518 -3.5192484e-16 0.0061923464
0.74064415 -0.05 0.043140647 -0.080925088 -1.4518028e-16 0.0068228722
0.73438769 -0.05 0.043653029 -0.090402387 -1.4920457e-16 0.0074931628
0.72813077 -0.05 0.044159843 -0.10054589 -3.0620596e-17 0.0081969727
0.72187341 -0.05 0.044661122 -0.11140868 -4.9029978e-16 0.0089278596
0.71561561 -0.05 0.045156896 -0.12297425 -3.0166026e-16 0.0096872028
0.70935736 -0.05 0.045646991 -0.13520285 -1.8167279e-16 0.01049549
0.70309867 -0.05 0.046131456 -0.14819689 1.5241219e-16 0.011326068
0.69683954 -0.05 0.046610259 -0.162034 -9.2346719e-17 0.012198693
0.69057998 -0.05 0.047083304 -0.17654722 -1.2187954e-16 0.013088379
0.68431999 -0.05 0.047550651 -0.19200376 -2.0918842e-17 0.014022444
0.67805957 -0.05 0.0480122 -0.20832006 -1.6381245e-16 0.014985612
0.67179872 -0.05 0.048467962 -0.2257038 -3.3145631e-17 0.016006551
0.66553745 -0.05 0.048917819 -0.24485078 -2.1059342e-16 0.017090712
0.65927575 -0.05 0.049361672 -0.26562467 -5.5592126e-17 0.01823789
0.65301363 -0.05 0.049799606 -0.2875921 4.0285876e-17 0.019437752
0.6467511 -0.05 0.050231534 -0.31082811 -1.90915e-16 0.020671563
0.64048814 -0.05 0.050657291 -0.33524249 2.9750764e-17 0.021934413
0.63422477 -0.05 0.051076843 -0.36091194 1.9342906e-16 0.023233026
0.62796099 -0.05 0.051490192 -0.38798687 -2.8707945e-16 0.024562803
0.62169678 -0.05 0.051897202 -0.41641874 3.7744946e-17 0.025916738
0.61543217 -0.05 0.052297787 -0.44614634 4.584451e-17 0.027293047
0.60916714 -0.05 0.052691944 -0.47746893 8.1375136e-17 0.02869697
0.60290171 -0.05 0.05307953 -0.51041432 -2.8756862e-16 0.030121063
0.59663587 -0.05 0.053460471 -0.54504488 1.4976647e-16 0.031566742
0.59036962 -0.05 0.053834684 -0.58143245 -4.8676056e-17 0.033035039
0.58410297 -0.05 0.054202079 -0.61956503 -2.3353035e-16 0.034513804
0.57783591 -0.05 0.054562537 -0.65962145 1.2812125e-16 0.036001468
0.57156845 -0.05 0.054915918 -0.7015163 -4.3505716e-17 0.037487783
0.56530061 -0.05 0.055262186 -0.74567018 -6.1993922e-17 0.03898605
0.55903235 -0.05 0.05560122 -0.7921718 -1.4945024e-16 0.040489705
0.55276371 -0.05 0.055932858 -0.84102218 -4.9898564e-16 0.041994765
0.54649468 -0.05 0.056257029 -0.89224433 1.0751432e-16 0.043478953
0.54022525 -0.05 0.05657357 -0.94596797 -1.6204961e-16 0.044936834
0.53395544 -0.05 0.056882342 -1.0021759 -1.6878282e-16 0.046364408
0.52768525 -0.05 0.057183274 -1.0613403 9.1280189e-18 0.047760507
0.52141468 -0.05 0.057476194 -1.1235274 -5.4042539e-17 0.049123103
0.51514373 -0.05 0.05776096 -1.1904069 2.5009394e-16 0.050599197
0.5088724 -0.05 0.058037405 -1.265774 -3.5716929e-17 0.052395637
0.50260072 -0.05 0.05830539 -1.3514607 1.3822908e-16 0.054298002
0.49632868 -0.05 0.058564793 -1.4416182 -7.0386827e-17 0.05585153
0.49005627 -0.05 0.058815415 -1.5343886 -3.7586659e-17 0.057195299
0.48378351 -0.05 0.059057053 -1.6298961 7.4939634e-17 0.058386274
0.47751041 -0.05 0.059289583 -1.7287821 1.1576687e-16 0.059331935
0.47123696 -0.05 0.059512868 -1.8317358 1.6604323e-16 0.05947466
0.46496319 -0.05 0.059726656 -1.9385769 -1.3678773e-16 0.059484074
0.4586891 -0.05 0.059930733 -2.0497729 1.1264466e-16 0.059763025
0.4524147 -0.05 0.060124937 -2.1654191 3.8269529e-17 0.059772998
0.44613999 -0.05 0.060309084 -2.2856446 2.0278803e-16 0.059451562
0.43986499 -0.05 0.06048295 -2.4107824 -1.6219649e-16 0.058773132
0.43358971 -0.05 0.060646293 -2.5408891 7.7765737e-17 0.057688842
0.42731416 -0.05 0.060798904 -2.6761261 2.3358994e-17 0.056207169
0.42103834 -0.05 0.060940584 -2.8164048 -6.745448e-18 0.05426132
0.41476228 -0.05 0.061071083 -2.9619965 5.332199e-17 0.051797229
0.40848601 -0.05 0.061190126 -3.1128023 -1.0015615e-16 0.04873826
0.40220952 -0.05 0.061297486 -3.2692841 -2.9118178e-17 0.045088648
0.39593283 -0.05 0.061392878 -3.4313181 -2.0946621e-17 0.040736427
0.38965597 -0.05 0.061475995 -3.5985433 1.2931933e-17 0.035692146
0.38337897 -0.05 0.061546621 -3.7712793 -4.4429906e-17 0.029914359
0.37710183 -0.05 0.061604516 -3.9502205 2.8678725e-17 0.023418489
0.37082457 -0.05 0.061649283 -4.1350836 -3.4636315e-17 0.015839399
0.36454724 -0.05 0.061680601 -4.3254017 -1.3744115e-17 0.0070508995
0.35826986 -0.05 0.061698229 -4.5215655 5.8803376e-18 -0.0026053054
0.35199246 -0.05 0.06170183 -4.7237647 -2.5632311e-18 -0.013571839
0.34571506 -0.05 0.061691049 -4.9323095 6.3284002e-18 -0.025943386
0.3394377 -0.05 0.0616655 -5.1472604 4.2819265e-17 -0.038950845
0.33316043 -0.05 0.061624854 -5.368068 -1.707884e-17 -0.053594062
0.32688327 -0.05 0.06156872 -5.5946945 -3.134105e-17 -0.069850003
0.32060627 -0.05 0.061496676 -5.8264287 -9.1079035e-18 -0.087682351
0.31432949 -0.05 0.061408331 -6.0636081 8.4535857e-17 -0.10726592
0.30805297 -0.05 0.061303273 -6.3083631 -1.0550116e-17 -0.12889828
0.30177675 -0.05 0.061181069 -6.5944465 8.7722641e-17 -0.15285193
