# yPlus  FACE_DATA 448
# x y z  yPlus
0.29849761 -0.05 -0.058928861 22.917354
0.29286151 -0.05 -0.05904213 22.711335
0.28730627 -0.05 -0.059139201 22.413775
0.28183076 -0.05 -0.059220311 22.129924
0.27643388 -0.05 -0.059285754 21.858423
0.27111453 -0.05 -0.059335848 21.599575
0.26587163 -0.05 -0.059370896 21.353432
0.26070412 -0.05 -0.059391167 21.119067
0.25561097 -0.05 -0.05939697 20.896046
0.25059113 -0.05 -0.059388579 20.683571
0.24564359 -0.05 -0.059366198 20.479722
0.24076737 -0.05 -0.059330131 20.283904
0.23596146 -0.05 -0.059280642 20.095105
0.23122489 -0.05 -0.059218017 19.912783
0.2265567 -0.05 -0.059142521 19.738321
0.22195596 -0.05 -0.059054349 19.570888
0.21742173 -0.05 -0.058953786 19.411039
0.21295308 -0.05 -0.058841074 19.259171
0.20854913 -0.05 -0.05871637 19.113486
0.20420898 -0.05 -0.058579959 18.974611
0.19993174 -0.05 -0.058432073 18.842839
0.19571655 -0.05 -0.058272966 18.717951
0.19156258 -0.05 -0.05810286 18.600409
0.18746895 -0.05 -0.057921858 18.488232
0.18343487 -0.05 -0.057730235 18.381625
0.17945951 -0.05 -0.057528198 18.281395
0.17554205 -0.05 -0.057315928 18.186005
0.17168172 -0.05 -0.057093651 18.097008
0.16787773 -0.05 -0.056861547 18.013406
0.16412931 -0.05 -0.056619771 17.935483
0.16043572 -0.05 -0.056368471 17.862205
0.15679619 -0.05 -0.056107889 17.794651
0.15321 -0.05 -0.055838157 17.732839
0.14967643 -0.05 -0.055559432 17.675579
0.14619476 -0.05 -0.055271883 17.623774
0.14276429 -0.05 -0.054975616 17.575768
0.13938433 -0.05 -0.054670807 17.531675
0.13605421 -0.05 -0.054357588 17.491295
0.13277324 -0.05 -0.054036143 17.455048
0.12954078 -0.05 -0.053706597 17.424026
0.12635619 -0.05 -0.053368991 17.39645
0.1232188 -0.05 -0.053023521 17.372905
0.120128 -0.05 -0.052670325 17.354846
0.11708318 -0.05 -0.05230943 17.340349
0.11408374 -0.05 -0.051940924 17.329367
0.11112908 -0.05 -0.051564952 17.321667
0.10821861 -0.05 -0.05118156 17.317362
0.10535175 -0.05 -0.050790851 17.314454
0.10252793 -0.05 -0.050392996 17.316396
0.099746608 -0.05 -0.049987946 17.321691
0.097007242 -0.05 -0.049575768 17.328974
0.094309284 -0.05 -0.049156614 17.34103
0.09165223 -0.05 -0.048730413 17.356258
0.089035559 -0.05 -0.048297239 17.371688
0.086458762 -0.05 -0.047857169 17.391392
0.083921348 -0.05 -0.047410237 17.413149
0.081422829 -0.05 -0.046956496 17.441321
0.078962755 -0.05 -0.046495848 17.471868
0.076540667 -0.05 -0.046028295 17.503398
0.074156101 -0.05 -0.045553918 17.535374
0.071808614 -0.05 -0.045072744 17.569277
0.069497797 -0.05 -0.044584666 17.604178
0.067223237 -0.05 -0.044089652 17.640335
0.064984526 -0.05 -0.043587704 17.68168
0.062781283 -0.05 -0.043078738 17.728282
0.060613139 -0.05 -0.042562674 17.778237
0.058479729 -0.05 -0.042039458 17.82991
0.056380711 -0.05 -0.041508991 17.882293
0.054315733 -0.05 -0.040971247 17.935345
0.052284502 -0.05 -0.040426041 17.99273
0.050286725 -0.05 -0.039873226 18.049482
0.048322097 -0.05 -0.039312742 18.111683
0.046390361 -0.05 -0.038744409 18.174124
0.044491279 -0.05 -0.038168044 18.238918
0.042624654 -0.05 -0.037583376 18.305565
0.040790282 -0.05 -0.036990213 18.37573
0.038987964 -0.05 -0.036388407 18.45689
0.037217561 -0.05 -0.035777676 18.54776
0.035478968 -0.05 -0.035157714 18.639987
0.033772103 -0.05 -0.034528208 18.731316
0.03209691 -0.05 -0.033888843 18.819962
0.030453377 -0.05 -0.033239265 18.914878
0.028841552 -0.05 -0.032579042 19.018583
0.027261499 -0.05 -0.031907793 19.121467
0.025713357 -0.05 -0.031225028 19.220211
0.02419733 -0.05 -0.030530229 19.327448
0.02271367 -0.05 -0.029822879 19.454789
0.021262748 -0.05 -0.029102346 19.596307
0.019844963 -0.05 -0.028368051 19.713297
0.018460875 -0.05 -0.027619261 19.780161
0.017111134 -0.05 -0.026855204 19.777273
0.015796477 -0.05 -0.026075125 19.726998
0.014517836 -0.05 -0.025278158 19.682152
0.013276321 -0.05 -0.024463427 19.755048
0.012073233 -0.05 -0.023630012 19.965974
0.010910106 -0.05 -0.022776887 20.338086
0.0097886671 -0.05 -0.021902967 20.865235
0.0087109622 -0.05 -0.021007354 21.569232
0.0076794633 -0.05 -0.020089157 22.464523
0.0066968796 -0.05 -0.019147236 23.374782
0.0057662528 -0.05 -0.018180797 24.148047
0.0048913113 -0.05 -0.017189595 24.728625
0.0040759164 -0.05 -0.016173171 25.030073
0.0033241583 -0.05 -0.015131615 25.05064
0.0026408036 -0.05 -0.014066141 24.751764
0.0020304575 -0.05 -0.012978122 24.12836
0.0014975146 -0.05 -0.011869962 23.146759
0.001045989 -0.05 -0.01074561 21.762857
0.00067905681 -0.05 -0.0096093954 19.989243
0.00039858721 -0.05 -0.0084665855 17.823752
0.00020479714 -0.05 -0.0073232344 15.226538
9.6324052e-05 -0.05 -0.006185439 12.168003
0.99671512 -0.05 0.016336739 69.802442
0.99052367 -0.05 0.015301467 59.972767
0.98433105 -0.05 0.014273158 59.779391
0.97813729 -0.05 0.013251784 59.664837
0.97194241 -0.05 0.012237242 59.50863
0.96574644 -0.05 0.011229373 59.333053
0.95954938 -0.05 0.010228195 59.145445
0.95335125 -0.05 0.0092336434 58.945669
0.94715209 -0.05 0.008245565 58.738252
0.94095192 -0.05 0.0072638756 58.521872
0.93475074 -0.05 0.0062885705 58.300188
0.92854856 -0.05 0.0053195898 58.071675
0.92234541 -0.05 0.0043568573 57.838709
0.9161413 -0.05 0.0034003385 57.598272
0.90993626 -0.05 0.0024498828 57.353007
0.90373029 -0.05 0.0015054927 57.101314
0.89752341 -0.05 0.00056713719 56.844163
0.89131565 -0.05 -0.00036531928 56.580799
0.88510699 -0.05 -0.0012918902 56.314447
0.87889745 -0.05 -0.002212519 56.044351
0.87268707 -0.05 -0.0031273425 55.772957
0.86647582 -0.05 -0.0040364287 55.499864
0.86026375 -0.05 -0.0049397486 55.226438
0.85405085 -0.05 -0.0058373887 54.951883
0.84783714 -0.05 -0.0067294111 54.677077
0.84162262 -0.05 -0.007615802 54.400503
0.83540731 -0.05 -0.0084965252 54.122433
0.8291912 -0.05 -0.0093717555 53.841046
0.82297433 -0.05 -0.010241453 53.555693
0.81675668 -0.05 -0.011105571 53.264216
0.81053827 -0.05 -0.011964188 52.968891
0.80431909 -0.05 -0.012817315 52.669432
0.79809917 -0.05 -0.013664982 52.36855
0.79187852 -0.05 -0.014507146 52.066488
0.78565712 -0.05 -0.015343891 51.76629
0.779435 -0.05 -0.016175182 51.467468
0.77321214 -0.05 -0.017000989 51.169369
0.76698857 -0.05 -0.017821372 50.871457
0.76076427 -0.05 -0.018636316 50.573698
0.75453928 -0.05 -0.019445811 50.273879
0.74831357 -0.05 -0.02024983 49.970182
0.74208715 -0.05 -0.021048356 49.660345
0.73586003 -0.05 -0.021841376 49.344095
0.72963221 -0.05 -0.022628853 49.02168
0.7234037 -0.05 -0.02341082 48.696576
0.7171745 -0.05 -0.024187308 48.371568
0.71094459 -0.05 -0.024958143 48.048652
0.704714 -0.05 -0.025723373 47.72829
0.69848272 -0.05 -0.026482967 47.410699
0.69225073 -0.05 -0.02723683 47.094244
0.68601806 -0.05 -0.027985017 46.778445
0.67978471 -0.05 -0.028727432 46.458658
0.67355067 -0.05 -0.029464085 46.131516
0.66731594 -0.05 -0.030194859 45.792788
0.66108051 -0.05 -0.030919654 45.443213
0.65484441 -0.05 -0.031638554 45.088261
0.64860761 -0.05 -0.032351474 44.73293
0.64237011 -0.05 -0.033058246 44.378537
0.63613192 -0.05 -0.033758839 44.025502
0.62989304 -0.05 -0.034453255 43.674143
0.62365346 -0.05 -0.035141356 43.323426
0.61741317 -0.05 -0.035823058 42.970009
0.61117218 -0.05 -0.036498356 42.609104
0.6049305 -0.05 -0.037167108 42.23237
0.59868811 -0.05 -0.03782924 41.834808
0.592445 -0.05 -0.03848467 41.4193
0.58620119 -0.05 -0.039133306 40.998457
0.57995666 -0.05 -0.039775032 40.581332
0.57371142 -0.05 -0.040409704 40.168147
0.56746546 -0.05 -0.041037288 39.759162
0.56121878 -0.05 -0.041657664 39.353875
0.55497138 -0.05 -0.04227067 38.949951
0.54872324 -0.05 -0.042876233 38.542137
0.54247438 -0.05 -0.043474191 38.119088
0.53622477 -0.05 -0.044064405 37.668081
0.52997444 -0.05 -0.044646805 37.189509
0.52372337 -0.05 -0.045221218 36.708874
0.51747154 -0.05 -0.045787503 36.228704
0.51121898 -0.05 -0.04634549 35.75087
0.50496568 -0.05 -0.046895044 35.277717
0.49871163 -0.05 -0.047436039 34.808089
0.49245681 -0.05 -0.04796828 34.339226
0.48620125 -0.05 -0.048491562 33.871163
0.47994493 -0.05 -0.049005759 33.403705
0.47368787 -0.05 -0.049510735 32.937564
0.46743005 -0.05 -0.05000624 32.470932
0.46117147 -0.05 -0.050492057 32.004231
0.45491213 -0.05 -0.050968026 31.53685
0.44865204 -0.05 -0.051433963 31.073685
0.44239119 -0.05 -0.05188964 30.618641
0.43612958 -0.05 -0.052334819 30.174045
0.42986722 -0.05 -0.052769289 29.740859
0.42360412 -0.05 -0.05319285 29.318101
0.41734027 -0.05 -0.053605252 28.908804
0.41107568 -0.05 -0.054006219 28.515841
0.40481036 -0.05 -0.054395525 28.139775
0.3985443 -0.05 -0.054772885 27.778289
0.39227752 -0.05 -0.055137989 27.427069
0.38601003 -0.05 -0.055490622 27.085752
0.37974183 -0.05 -0.055830543 26.75354
0.37347293 -0.05 -0.056157353 26.429716
0.36720334 -0.05 -0.056470731 26.112602
0.3609331 -0.05 -0.056770436 25.803774
0.35466219 -0.05 -0.05705613 25.502008
0.34839065 -0.05 -0.057327456 25.207862
0.34211849 -0.05 -0.057584027 24.920096
0.33584573 -0.05 -0.057825511 24.639952
0.32957239 -0.05 -0.058051519 24.366297
0.32329851 -0.05 -0.058261624 24.098644
0.31702409 -0.05 -0.058455436 23.837507
0.31074918 -0.05 -0.058632541 23.585358
0.30447381 -0.05 -0.058792503 23.216786
0.29580046 -0.05 0.061048729 22.614964
0.29016496 -0.05 0.060908607 22.765731
0.28461097 -0.05 0.060755936 23.051662
0.27913734 -0.05 0.060590905 23.324065
0.27374297 -0.05 0.060413754 23.589936
0.26842674 -0.05 0.060224756 23.848233
0.26318757 -0.05 0.060024162 24.101791
0.25802437 -0.05 0.059812193 24.35283
0.2529361 -0.05 0.059589113 24.599415
0.24792171 -0.05 0.059355147 24.840263
0.24298019 -0.05 0.059110456 25.074903
0.23811051 -0.05 0.058855296 25.304809
0.23331167 -0.05 0.058589887 25.527985
0.2285827 -0.05 0.058314472 25.743051
0.22392262 -0.05 0.058029273 25.953055
0.21933049 -0.05 0.057734439 26.158812
0.21480536 -0.05 0.057430216 26.35876
0.2103463 -0.05 0.057116806 26.552074
0.2059524 -0.05 0.056794322 26.735804
0.20162275 -0.05 0.056463009 26.909075
0.19735648 -0.05 0.056123061 27.071056
0.19315271 -0.05 0.055774691 27.22437
0.18901057 -0.05 0.055418084 27.371311
0.18492921 -0.05 0.055053306 27.516164
0.18090781 -0.05 0.054680591 27.663621
0.17694555 -0.05 0.054300112 27.808131
0.17304159 -0.05 0.053912013 27.942122
0.16919515 -0.05 0.053516484 28.059095
0.16540543 -0.05 0.053113669 28.155149
0.16167166 -0.05 0.05270369 28.233745
0.1579931 -0.05 0.05228666 28.30619
0.15436895 -0.05 0.051862787 28.392079
0.1507985 -0.05 0.05143217 28.496421
0.14728103 -0.05 0.050994935 28.620558
0.1438158 -0.05 0.050551215 28.756907
0.14040211 -0.05 0.050101088 28.906265
0.13703926 -0.05 0.049644697 29.071983
0.13372658 -0.05 0.049182145 29.258131
0.13046338 -0.05 0.048713584 29.463118
0.12724899 -0.05 0.04823911 29.681995
0.12408278 -0.05 0.047758734 29.906022
0.12096409 -0.05 0.047272624 30.130037
0.11789229 -0.05 0.046780889 30.351356
0.11486676 -0.05 0.046283531 30.566429
0.11188691 -0.05 0.045780607 30.773821
0.10895212 -0.05 0.045272237 30.972844
0.10606182 -0.05 0.04475844 31.163003
0.10321542 -0.05 0.044239295 31.341604
0.10041233 -0.05 0.043714944 31.5113
0.097652026 -0.05 0.043185316 31.671297
0.094933951 -0.05 0.042650451 31.819237
0.092257554 -0.05 0.04211048 31.957293
0.089622336 -0.05 0.041565307 32.085768
0.087027775 -0.05 0.041014981 32.202938
0.084473359 -0.05 0.040459558 32.312047
0.081958592 -0.05 0.039899051 32.410805
0.079482987 -0.05 0.039333489 32.501916
0.077046098 -0.05 0.038762756 32.583016
0.074647469 -0.05 0.038186831 32.653674
0.07228663 -0.05 0.037605774 32.714499
0.069963136 -0.05 0.037019594 32.766982
0.067676587 -0.05 0.036428165 32.810227
0.065426571 -0.05 0.035831436 32.842919
0.063212678 -0.05 0.035229391 32.866705
0.061034534 -0.05 0.034621929 32.881147
0.058891771 -0.05 0.034008955 32.885706
0.056784028 -0.05 0.033390394 32.880465
0.054710968 -0.05 0.032766138 32.866365
0.052672242 -0.05 0.032136141 32.843247
0.050667564 -0.05 0.031500206 32.814631
0.048696648 -0.05 0.030858172 32.771861
0.046759191 -0.05 0.030209967 32.720164
0.044854947 -0.05 0.0295554 32.658095
0.042983684 -0.05 0.028894276 32.58624
0.041145219 -0.05 0.028226315 32.503066
0.039339356 -0.05 0.027551317 32.407323
0.037565902 -0.05 0.026869126 32.300226
0.035824734 -0.05 0.026179454 32.183336
0.034115757 -0.05 0.025481989 32.053686
0.032438905 -0.05 0.024776414 31.912773
0.030794137 -0.05 0.024062415 31.758324
0.029181455 -0.05 0.023339636 31.592622
0.027600928 -0.05 0.022607648 31.413022
0.026052635 -0.05 0.021866071 31.219978
0.024536741 -0.05 0.021114426 31.015304
0.023053468 -0.05 0.0203522 30.792812
0.021603093 -0.05 0.019578892 30.555762
0.020186017 -0.05 0.018793886 30.303657
0.018802661 -0.05 0.01799662 30.030957
0.017453621 -0.05 0.017186387 29.74234
0.016139579 -0.05 0.016362447 29.427975
0.014861307 -0.05 0.015524077 29.092756
0.013619772 -0.05 0.014670457 28.728433
0.012416123 -0.05 0.013800757 28.331582
0.011251703 -0.05 0.012914119 27.892942
0.010128089 -0.05 0.012009587 27.41406
0.0090470554 -0.05 0.011086154 26.882758
0.0080106864 -0.05 0.010143014 26.288668
0.0070214916 -0.05 0.0091793926 25.615612
0.0060822289 -0.05 0.008194267 24.843051
0.0051959724 -0.05 0.0071869831 23.940777
0.0043664577 -0.05 0.0061574644 22.893406
0.0035975628 -0.05 0.0051054254 21.666071
0.00289337 -0.05 0.0040311383 20.209643
0.0022585862 -0.05 0.002936032 18.484831
0.0016977505 -0.05 0.0018216849 16.447658
0.0012151448 -0.05 0.00069069428 13.998387
0.00081460178 -0.05 -0.00045281357 10.963464
0.00049909982 -0.05 -0.001604369 7.9321355
0.00027026948 -0.05 -0.0027586281 3.9671855
0.00012805541 -0.05 -0.0039095327 5.5213878
7.0822494e-05 -0.05 -0.0050510532 8.9768455
0.99669491 -0.05 0.017235864 3.6305585
0.99046319 -0.05 0.017991858 0.8815282
0.98423062 -0.05 0.018740842 1.0588835
0.97799721 -0.05 0.019482846 0.27789668
0.971763 -0.05 0.020217976 0.83936835
0.96552799 -0.05 0.02094639 0.70307149
0.9592922 -0.05 0.021668072 0.80051852
0.95305565 -0.05 0.022383086 0.78954327
0.94681834 -0.05 0.023091587 0.82441863
0.94058032 -0.05 0.023793659 0.84793105
0.93434157 -0.05 0.024489308 0.89102494
0.92810212 -0.05 0.025178595 0.99572828
0.92186197 -0.05 0.025861596 1.133385
0.91562114 -0.05 0.026538346 1.0881578
0.90937967 -0.05 0.027208998 1.1340609
0.90313752 -0.05 0.027873548 1.0520661
0.89689474 -0.05 0.028532029 1.104533
0.89065135 -0.05 0.029184577 1.0289326
0.88440733 -0.05 0.029831207 1.0518361
0.87816269 -0.05 0.030471859 1.0179062
0.87191746 -0.05 0.031106674 0.98256128
0.86567164 -0.05 0.031735719 0.92146942
0.85942525 -0.05 0.032358967 0.83711744
0.85317829 -0.05 0.032976503 0.71969832
0.84693077 -0.05 0.033588391 0.5502961
0.8406827 -0.05 0.034194616 0.25496624
0.83443408 -0.05 0.034795144 0.43443345
0.82818493 -0.05 0.035390149 0.61980255
0.82193525 -0.05 0.035979593 0.77510178
0.81568506 -0.05 0.036563427 0.91127316
0.80943434 -0.05 0.037141732 1.0408066
0.80318312 -0.05 0.037714518 1.1683305
0.79693139 -0.05 0.038281817 1.2937527
0.79067917 -0.05 0.038843583 1.4155968
0.78442646 -0.05 0.039399904 1.5373343
0.77817326 -0.05 0.039950744 1.6611769
0.77191958 -0.05 0.040496072 1.7873849
0.76566543 -0.05 0.041035949 1.9155189
0.7594108 -0.05 0.041570361 2.0461177
0.75315572 -0.05 0.042099297 2.180215
0.74690016 -0.05 0.042622731 2.3163789
0.74064415 -0.05 0.043140647 2.4541527
0.73438769 -0.05 0.043653029 2.5937627
0.72813077 -0.05 0.044159843 2.7355203
0.72187341 -0.05 0.044661122 2.8793486
0.71561561 -0.05 0.045156896 3.0251231
0.70935736 -0.05 0.045646991 3.1719243
0.70309867 -0.05 0.046131456 3.3210061
0.69683954 -0.05 0.046610259 3.472414
0.69057998 -0.05 0.047083304 3.624577
0.68431999 -0.05 0.047550651 3.7798597
0.67805957 -0.05 0.0480122 3.9372287
0.67179872 -0.05 0.048467962 4.0981665
0.66553745 -0.05 0.048917819 4.2684986
0.65927575 -0.05 0.049361672 4.4458738
0.65301363 -0.05 0.049799606 4.626123
0.6467511 -0.05 0.050231534 4.8093239
0.64048814 -0.05 0.050657291 4.9946469
0.63422477 -0.05 0.051076843 5.1823655
0.62796099 -0.05 0.051490192 5.3732386
0.62169678 -0.05 0.051897202 5.5666452
0.61543217 -0.05 0.052297787 5.7619463
0.60916714 -0.05 0.052691944 5.9608436
0.60290171 -0.05 0.05307953 6.1631032
0.59663587 -0.05 0.053460471 6.3687812
0.59036962 -0.05 0.053834684 6.5779557
0.58410297 -0.05 0.054202079 6.7902935
0.57783591 -0.05 0.054562537 7.0063858
0.57156845 -0.05 0.054915918 7.2255313
0.56530061 -0.05 0.055262186 7.4494662
0.55903235 -0.05 0.05560122 7.6783075
0.55276371 -0.05 0.055932858 7.9115482
0.54649468 -0.05 0.056257029 8.1490551
0.54022525 -0.05 0.05657357 8.3908618
0.53395544 -0.05 0.056882342 8.6366531
0.52768525 -0.05 0.057183274 8.8879907
0.52141468 -0.05 0.057476194 9.1448387
0.51514373 -0.05 0.05776096 9.4130642
0.5088724 -0.05 0.058037405 9.7066524
0.50260072 -0.05 0.05830539 10.029793
0.49632868 -0.05 0.058564793 10.359125
0.49005627 -0.05 0.058815415 10.687259
0.48378351 -0.05 0.059057053 11.015025
0.47751041 -0.05 0.059289583 11.344265
0.47123696 -0.05 0.059512868 11.677244
0.46496319 -0.05 0.059726656 12.012885
0.4586891 -0.05 0.059930733 12.352802
0.4524147 -0.05 0.060124937 12.696535
0.44613999 -0.05 0.060309084 13.044505
0.43986499 -0.05 0.06048295 13.396807
0.43358971 -0.05 0.060646293 13.753681
0.42731416 -0.05 0.060798904 14.114881
0.42103834 -0.05 0.060940584 14.480229
0.41476228 -0.05 0.061071083 14.849534
0.40848601 -0.05 0.061190126 15.223025
0.40220952 -0.05 0.061297486 15.600926
0.39593283 -0.05 0.061392878 15.983148
0.38965597 -0.05 0.061475995 16.367954
0.38337897 -0.05 0.061546621 16.756457
0.37710183 -0.05 0.061604516 17.149433
0.37082457 -0.05 0.061649283 17.546323
0.36454724 -0.05 0.061680601 17.945492
0.35826986 -0.05 0.061698229 18.348134
0.35199246 -0.05 0.06170183 18.753844
0.34571506 -0.05 0.061691049 19.163603
0.3394377 -0.05 0.0616655 19.576353
0.33316043 -0.05 0.061624854 19.991938
0.32688327 -0.05 0.06156872 20.409253
0.32060627 -0.05 0.061496676 20.827466
0.31432949 -0.05 0.061408331 21.246388
0.30805297 -0.05 0.061303273 21.671474
0.30177675 -0.05 0.061181069 22.220652
