# p  FACE_DATA 448
# x y z  p
0.29468942 -0.05 -0.061866669 99552.581
0.28905738 -0.05 -0.061624699 99549.131
0.28350705 -0.05 -0.061371657 99546.808
0.27803731 -0.05 -0.061107707 99544.432
0.27264702 -0.05 -0.060833074 99542.209
0.26733508 -0.05 -0.060548008 99540.129
0.26210038 -0.05 -0.06025274 99538.145
0.25694185 -0.05 -0.059947472 99536.349
0.25185846 -0.05 -0.059632451 99534.582
0.24684911 -0.05 -0.05930788 99533.021
0.24191281 -0.05 -0.058973904 99531.58
0.23704855 -0.05 -0.058630758 99530.286
0.2322553 -0.05 -0.058278647 99529.125
0.22753208 -0.05 -0.057917793 99528.072
0.22287791 -0.05 -0.057548401 99527.145
0.21829186 -0.05 -0.057170606 99526.406
0.21377297 -0.05 -0.056784634 99525.698
0.2093203 -0.05 -0.05639067 99525.197
0.20493294 -0.05 -0.055988812 99524.861
0.20061 -0.05 -0.055579288 99524.633
0.19635058 -0.05 -0.055162276 99524.587
0.19215378 -0.05 -0.054737974 99524.594
0.18801877 -0.05 -0.05430655 99524.779
0.18394468 -0.05 -0.053868054 99525.197
0.17993067 -0.05 -0.053422706 99525.667
0.17597593 -0.05 -0.052970667 99526.371
0.17207962 -0.05 -0.05251206 99527.144
0.16824096 -0.05 -0.052047066 99528.08
0.16445914 -0.05 -0.051575811 99529.111
0.1607334 -0.05 -0.051098405 99530.403
0.15706296 -0.05 -0.050614948 99531.861
0.15344707 -0.05 -0.050125633 99533.442
0.149885 -0.05 -0.049630544 99535.263
0.146376 -0.05 -0.049129797 99537.175
0.14291936 -0.05 -0.04862351 99539.27
0.13951437 -0.05 -0.048111749 99541.512
0.13616032 -0.05 -0.047594644 99543.928
0.13285654 -0.05 -0.047072285 99546.586
0.12960234 -0.05 -0.046544813 99549.333
0.12639705 -0.05 -0.046012311 99552.367
0.12324004 -0.05 -0.045474779 99555.669
0.12013065 -0.05 -0.044932375 99559.05
0.11706824 -0.05 -0.044385192 99562.608
0.11405219 -0.05 -0.043833223 99566.368
0.11108192 -0.05 -0.043276517 99570.354
0.10815681 -0.05 -0.042715179 99574.55
0.10527627 -0.05 -0.04214922 99579.143
0.10243972 -0.05 -0.041578706 99583.859
0.099646563 -0.05 -0.04100377 99588.786
0.096896277 -0.05 -0.040424332 99594.095
0.094188313 -0.05 -0.039840421 99599.472
0.091522116 -0.05 -0.039252158 99605.005
0.088897183 -0.05 -0.038659438 99611.029
0.086312994 -0.05 -0.038062302 99617.269
0.083769034 -0.05 -0.037460794 99623.972
0.081264811 -0.05 -0.03685492 99630.857
0.078799834 -0.05 -0.0362447 99638.134
0.076373661 -0.05 -0.03563001 99645.764
0.073985834 -0.05 -0.03501082 99653.665
0.071635884 -0.05 -0.034387183 99661.783
0.069323367 -0.05 -0.033759098 99670.354
0.067047882 -0.05 -0.033126432 99679.484
0.06480902 -0.05 -0.032489127 99689.057
0.062606371 -0.05 -0.031847162 99699.088
0.060439564 -0.05 -0.031200426 99709.52
0.058308232 -0.05 -0.030548817 99720.335
0.056212015 -0.05 -0.029892257 99731.741
0.054150579 -0.05 -0.02923063 99743.717
0.052123573 -0.05 -0.028563883 99756.209
0.050130718 -0.05 -0.027891814 99769.717
0.04817173 -0.05 -0.027214258 99783.848
0.046246308 -0.05 -0.026531136 99798.597
0.044354207 -0.05 -0.025842253 99813.669
0.0424952 -0.05 -0.025147411 99829.453
0.04066911 -0.05 -0.024446325 99846.475
0.038875743 -0.05 -0.023738794 99864.574
0.037114912 -0.05 -0.023024658 99883.812
0.035386495 -0.05 -0.022303623 99904.126
0.033690404 -0.05 -0.02157538 99925.151
0.032026582 -0.05 -0.020839609 99947.226
0.030394989 -0.05 -0.020095995 99970.819
0.028795635 -0.05 -0.019344182 99996.487
0.027228597 -0.05 -0.018583743 100023.79
0.025693963 -0.05 -0.0178143 100052.71
0.024191904 -0.05 -0.017035375 100083.25
0.022722652 -0.05 -0.016246461 100115.34
0.021286493 -0.05 -0.015447061 100149.41
0.019883838 -0.05 -0.014636567 100185.98
0.018515121 -0.05 -0.013814426 100225.08
0.017180948 -0.05 -0.012979939 100267.2
0.015882014 -0.05 -0.01213238 100312.53
0.014619105 -0.05 -0.011271041 100361.77
0.013393204 -0.05 -0.010395117 100415.5
0.012205472 -0.05 -0.009503801 100473.8
0.01105727 -0.05 -0.0085962591 100535.7
0.009950191 -0.05 -0.0076715643 100601.92
0.0088860262 -0.05 -0.0067287406 100672.19
0.0078668752 -0.05 -0.0057670217 100746.82
0.0068952612 -0.05 -0.004785676 100825.76
0.0059739595 -0.05 -0.0037837327 100910.21
0.0051060561 -0.05 -0.002760593 100998.21
0.004295287 -0.05 -0.0017162477 101089.09
0.0035455351 -0.05 -0.00065048159 101181.32
0.0028608767 -0.05 0.00043635929 101272.66
0.0022459924 -0.05 0.0015427614 101359.77
0.0017053919 -0.05 0.0026670645 101437.95
0.0012433094 -0.05 0.0038065941 101503.53
0.00086350259 -0.05 0.0049571555 101553.07
0.00056886836 -0.05 0.0061142259 101580.12
0.00036094045 -0.05 0.0072724329 101582.57
0.00023955402 -0.05 0.0084257202 101559.19
0.00020296523 -0.05 0.0095680889 101507.69
0.99626134 -0.05 -0.030730727 100149.14
0.99001698 -0.05 -0.031373949 100090.05
0.98377188 -0.05 -0.032010148 100080.9
0.97752608 -0.05 -0.032639351 100064.03
0.97127959 -0.05 -0.033261668 100051.61
0.96503244 -0.05 -0.033877256 100039.58
0.95878462 -0.05 -0.034486098 100028.94
0.95253616 -0.05 -0.03508826 100018.96
0.94628707 -0.05 -0.035683896 100009.68
0.94003737 -0.05 -0.036273091 100000.86
0.93378707 -0.05 -0.036855851 99992.617
0.92753618 -0.05 -0.037432238 99984.698
0.9212847 -0.05 -0.038002327 99977.235
0.91503267 -0.05 -0.038566154 99970.052
0.90878008 -0.05 -0.039123872 99963.113
0.90252695 -0.05 -0.039675477 99956.548
0.89627329 -0.05 -0.040221002 99950.192
0.89001911 -0.05 -0.040760585 99943.95
0.88376443 -0.05 -0.041294238 99937.929
0.87750923 -0.05 -0.041821904 99932.183
0.87125354 -0.05 -0.042343723 99926.473
0.86499738 -0.05 -0.042859763 99920.971
0.85874074 -0.05 -0.043369995 99915.605
0.85248363 -0.05 -0.043874506 99910.348
0.84622608 -0.05 -0.04437336 99905.17
0.83996807 -0.05 -0.044866544 99900.173
0.83370962 -0.05 -0.045354019 99895.333
0.82745072 -0.05 -0.045835964 99890.389
0.82119141 -0.05 -0.046312338 99885.682
0.81493168 -0.05 -0.046783095 99880.963
0.80867153 -0.05 -0.047248314 99876.374
0.80241098 -0.05 -0.047708005 99871.804
0.79615002 -0.05 -0.048162202 99867.376
0.78988866 -0.05 -0.048610858 99863.027
0.78362691 -0.05 -0.049054061 99858.635
0.77736479 -0.05 -0.049491775 99854.358
0.77110227 -0.05 -0.049923969 99850.083
0.76483938 -0.05 -0.050350704 99845.881
0.75857611 -0.05 -0.050771966 99841.708
0.75231249 -0.05 -0.051187745 99837.58
0.7460485 -0.05 -0.051598015 99833.499
0.73978415 -0.05 -0.052002758 99829.423
0.73351945 -0.05 -0.052401962 99825.381
0.72725439 -0.05 -0.052795589 99821.409
0.72098899 -0.05 -0.053183675 99817.379
0.71472325 -0.05 -0.053566248 99813.32
0.70845716 -0.05 -0.053943135 99809.42
0.70219074 -0.05 -0.054314386 99805.343
0.69592398 -0.05 -0.054679967 99801.436
0.68965688 -0.05 -0.055039784 99797.448
0.68338947 -0.05 -0.055393895 99793.493
0.67712173 -0.05 -0.055742201 99789.547
0.67085367 -0.05 -0.056084714 99785.523
0.66458529 -0.05 -0.056421316 99781.615
0.65831659 -0.05 -0.056751906 99777.689
0.65204758 -0.05 -0.057076571 99773.633
0.64577826 -0.05 -0.057395224 99769.651
0.63950863 -0.05 -0.057707698 99765.732
0.63323869 -0.05 -0.058013961 99761.776
0.62696846 -0.05 -0.058314015 99757.757
0.62069792 -0.05 -0.058607723 99753.809
0.61442709 -0.05 -0.058895 99749.793
0.60815597 -0.05 -0.059175843 99745.739
0.60188455 -0.05 -0.059450108 99741.715
0.59561285 -0.05 -0.059717722 99737.63
0.58934086 -0.05 -0.059978601 99733.564
0.58306859 -0.05 -0.060232655 99729.43
0.57679604 -0.05 -0.060479769 99725.358
0.57052322 -0.05 -0.060719797 99721.29
0.56425013 -0.05 -0.060952708 99717.176
0.55797678 -0.05 -0.061178378 99713.083
0.55170316 -0.05 -0.061396646 99709
0.54542929 -0.05 -0.061607441 99704.859
0.53915517 -0.05 -0.061810601 99700.794
0.53288081 -0.05 -0.062005986 99696.691
0.5266062 -0.05 -0.062193525 99692.58
0.52033136 -0.05 -0.062373048 99688.478
0.51405628 -0.05 -0.06254441 99684.361
0.50778099 -0.05 -0.062707446 99680.288
0.50150548 -0.05 -0.062862016 99676.178
0.49522978 -0.05 -0.063007999 99672.057
0.48895386 -0.05 -0.063145197 99667.949
0.48267775 -0.05 -0.063273406 99663.893
0.47640148 -0.05 -0.063392503 99659.784
0.47012503 -0.05 -0.063502348 99655.664
0.46384842 -0.05 -0.063602693 99651.577
0.45757166 -0.05 -0.063693322 99647.513
0.45129478 -0.05 -0.063774075 99643.445
0.44501776 -0.05 -0.063844768 99639.377
0.43874064 -0.05 -0.063905174 99635.328
0.43246343 -0.05 -0.063955055 99631.321
0.42618614 -0.05 -0.063994201 99627.331
0.4199088 -0.05 -0.064022412 99623.324
0.41363141 -0.05 -0.064039441 99619.356
0.40735401 -0.05 -0.06404501 99615.415
0.4010766 -0.05 -0.064038895 99611.45
0.39479922 -0.05 -0.064020811 99607.558
0.38852188 -0.05 -0.06399045 99603.741
0.38224462 -0.05 -0.063947598 99599.907
0.37596746 -0.05 -0.063892015 99596.058
0.36969043 -0.05 -0.063823303 99592.34
0.36341355 -0.05 -0.063741143 99588.63
0.35713688 -0.05 -0.063645294 99584.964
0.35086043 -0.05 -0.063535421 99581.338
0.34458426 -0.05 -0.063411169 99577.778
0.33830839 -0.05 -0.063272151 99574.291
0.33203287 -0.05 -0.06311804 99570.785
0.32575776 -0.05 -0.062948446 99567.378
0.3194831 -0.05 -0.062762947 99564.12
0.31320893 -0.05 -0.062561153 99561.119
0.30693532 -0.05 -0.062342654 99557.879
0.30066235 -0.05 -0.062107018 99553.632
0.29955491 -0.05 0.058042563 99394.117
0.29392178 -0.05 0.058257694 99386.793
0.2883692 -0.05 0.058455169 99378.863
0.28289606 -0.05 0.058635244 99371.212
0.27750125 -0.05 0.058798232 99363.584
0.27218367 -0.05 0.058944475 99356.094
0.26694226 -0.05 0.059074291 99348.668
0.26177596 -0.05 0.059187969 99341.412
0.25668374 -0.05 0.059285839 99334.111
0.25166458 -0.05 0.059368189 99326.99
0.24671745 -0.05 0.059435247 99319.995
0.24184136 -0.05 0.059487332 99313.148
0.23703535 -0.05 0.059524725 99306.328
0.23229842 -0.05 0.059547731 99299.605
0.22762963 -0.05 0.059556633 99292.954
0.22302804 -0.05 0.05955164 99286.462
0.21849273 -0.05 0.059533056 99279.919
0.21402278 -0.05 0.059501141 99273.567
0.2096173 -0.05 0.059456066 99267.361
0.20527538 -0.05 0.059398131 99261.21
0.20099617 -0.05 0.059327588 99255.19
0.1967788 -0.05 0.059244702 99249.129
0.19262243 -0.05 0.059149713 99243.206
0.1885262 -0.05 0.059042741 99237.503
0.1844893 -0.05 0.05892407 99231.746
0.18051094 -0.05 0.058793928 99226.177
0.17659029 -0.05 0.058652507 99220.593
0.17272657 -0.05 0.058500048 99215.149
0.16891901 -0.05 0.058336745 99209.723
0.16516683 -0.05 0.058162767 99204.494
0.1614693 -0.05 0.057978275 99199.327
0.15782566 -0.05 0.057783526 99194.171
0.15423518 -0.05 0.057578664 99189.215
0.15069714 -0.05 0.05736386 99184.268
0.14721085 -0.05 0.057139294 99179.476
0.14377558 -0.05 0.056905087 99174.788
0.14039066 -0.05 0.056661426 99170.183
0.13705542 -0.05 0.056408455 99165.719
0.13376918 -0.05 0.056146371 99161.173
0.13053129 -0.05 0.05587531 99156.829
0.12734111 -0.05 0.055595326 99152.647
0.124198 -0.05 0.055306626 99148.374
0.12110132 -0.05 0.055009359 99144.22
0.11805047 -0.05 0.054703562 99140.247
0.11504486 -0.05 0.054389336 99136.406
0.11208388 -0.05 0.054066836 99132.607
0.10916695 -0.05 0.053736117 99129.138
0.10629351 -0.05 0.053397295 99125.587
0.10346296 -0.05 0.05305055 99122.052
0.10067477 -0.05 0.052695843 99118.847
0.097928399 -0.05 0.05233325 99115.578
0.095223305 -0.05 0.051962935 99112.337
0.09255898 -0.05 0.051584834 99109.503
0.089934907 -0.05 0.051199032 99106.587
0.087350578 -0.05 0.050805612 99103.982
0.084805499 -0.05 0.050404621 99101.252
0.082299186 -0.05 0.049996119 99098.743
0.079831186 -0.05 0.049580017 99096.506
0.077401042 -0.05 0.049156324 99094.474
0.075008291 -0.05 0.048725129 99092.429
0.07265249 -0.05 0.048286468 99090.516
0.070333227 -0.05 0.047840241 99088.968
0.068050091 -0.05 0.047386424 99087.574
0.065802672 -0.05 0.046925026 99086.396
0.063590589 -0.05 0.04645597 99085.528
0.06141347 -0.05 0.045979184 99084.954
0.059270951 -0.05 0.045494618 99084.674
0.057162686 -0.05 0.045002181 99084.676
0.055088326 -0.05 0.044501852 99084.715
0.053047572 -0.05 0.043993453 99085.442
0.051040127 -0.05 0.043476841 99086.271
0.049065689 -0.05 0.042951962 99087.51
0.047123995 -0.05 0.042418641 99089.094
0.045214805 -0.05 0.0418767 99091.346
0.043337916 -0.05 0.041325869 99094.409
0.041493121 -0.05 0.040765962 99098.006
0.039680219 -0.05 0.040196834 99102.102
0.037899066 -0.05 0.039618206 99107.019
0.03614955 -0.05 0.039029774 99112.711
0.034431585 -0.05 0.038431224 99119.427
0.032745109 -0.05 0.037822245 99127.006
0.031090102 -0.05 0.037202483 99135.827
0.029466605 -0.05 0.036571505 99145.846
0.027874675 -0.05 0.035928926 99157.094
0.026314445 -0.05 0.035274258 99170.023
0.024786107 -0.05 0.034606976 99184.634
0.023289903 -0.05 0.033926562 99201.279
0.021826193 -0.05 0.033232374 99220.321
0.020395365 -0.05 0.032523829 99241.677
0.018997969 -0.05 0.03180018 99266.452
0.017634636 -0.05 0.031060647 99294.43
0.016306093 -0.05 0.030304458 99326.512
0.015013256 -0.05 0.029530737 99362.93
0.013757215 -0.05 0.028738581 99404.593
0.012539259 -0.05 0.027927049 99451.779
0.0113609 -0.05 0.02709509 99505.553
0.010223847 -0.05 0.026241583 99565.777
0.0091301283 -0.05 0.025365597 99633.229
0.0080822001 -0.05 0.024466198 99710.576
0.0070827501 -0.05 0.023542192 99800.005
0.0061348055 -0.05 0.022592733 99900.558
0.0052420895 -0.05 0.021617509 100011.78
0.0044084543 -0.05 0.020615991 100136.66
0.0036379913 -0.05 0.019588194 100273.66
0.0029354882 -0.05 0.018535247 100421.49
0.0023055743 -0.05 0.017458439 100578.45
0.0017526867 -0.05 0.016360094 100740.38
0.0012809104 -0.05 0.015244087 100902.11
0.00089349931 -0.05 0.014114692 101058.13
0.00059241748 -0.05 0.012977138 101202.97
0.00037799121 -0.05 0.011837477 101328.87
0.00024896841 -0.05 0.010701828 101430.34
0.9962978 -0.05 -0.029832114 100043.1
0.99012608 -0.05 -0.02868509 100043.37
0.98395306 -0.05 -0.027545008 100035.18
0.97777877 -0.05 -0.02641184 100035.35
0.97160324 -0.05 -0.025285482 100031.49
0.96542649 -0.05 -0.024165775 100029.58
0.95924855 -0.05 -0.023052738 100026.77
0.95306942 -0.05 -0.021946309 100024.4
0.94688913 -0.05 -0.020846333 100021.82
0.94070771 -0.05 -0.019752726 100019.33
0.93452517 -0.05 -0.018665483 100016.78
0.92834153 -0.05 -0.017584547 100014.24
0.92215679 -0.05 -0.016509841 100011.67
0.91597098 -0.05 -0.015441329 100009.09
0.90978414 -0.05 -0.014378862 100006.48
0.90359626 -0.05 -0.013322444 100003.85
0.89740736 -0.05 -0.012272044 100001.18
0.89121746 -0.05 -0.011227524 99998.483
0.88502657 -0.05 -0.010188873 99995.748
0.87883469 -0.05 -0.009156148 99992.991
0.87264185 -0.05 -0.0081292114 99990.192
0.86644806 -0.05 -0.007107996 99987.362
0.86025333 -0.05 -0.0060925305 99984.492
0.85405767 -0.05 -0.0050827293 99981.587
0.8478611 -0.05 -0.0040785301 99978.642
0.84166362 -0.05 -0.003079947 99975.659
0.83546524 -0.05 -0.002087016 99972.629
0.82926597 -0.05 -0.001099563 99969.54
0.82306583 -0.05 -0.00011762805 99966.402
0.81686482 -0.05 0.00085874232 99963.194
0.81066295 -0.05 0.0018296272 99959.928
0.80446021 -0.05 0.0027950359 99956.59
0.79825664 -0.05 0.0037549996 99953.184
0.79205222 -0.05 0.0047094733 99949.703
0.78584696 -0.05 0.0056585429 99946.136
0.77964089 -0.05 0.0066021733 99942.498
0.77343397 -0.05 0.0075403329 99938.772
0.76722625 -0.05 0.0084730822 99934.964
0.76101771 -0.05 0.009400407 99931.062
0.75480836 -0.05 0.010322297 99927.064
0.7485982 -0.05 0.011238724 99922.963
0.74238724 -0.05 0.012149671 99918.758
0.73617546 -0.05 0.013055127 99914.451
0.7299629 -0.05 0.013955052 99910.051
0.72374954 -0.05 0.014849483 99905.53
0.71753539 -0.05 0.015738446 99900.886
0.71132043 -0.05 0.01662177 99896.141
0.70510469 -0.05 0.017499503 99891.24
0.69888816 -0.05 0.018371613 99886.252
0.69267082 -0.05 0.019238004 99881.109
0.6864527 -0.05 0.020098735 99875.844
0.68023379 -0.05 0.020953707 99870.441
0.67401408 -0.05 0.021802929 99864.884
0.66779357 -0.05 0.022646286 99859.218
0.66157227 -0.05 0.023483678 99853.412
0.65535018 -0.05 0.024315188 99847.448
0.64912729 -0.05 0.025140731 99841.355
0.64290358 -0.05 0.025960141 99835.134
0.63667907 -0.05 0.026773385 99828.772
0.63045376 -0.05 0.027580465 99822.268
0.62422763 -0.05 0.028381244 99815.668
0.61800069 -0.05 0.029175637 99808.915
0.61177293 -0.05 0.029963641 99802.029
0.60554436 -0.05 0.030745111 99795.037
0.59931495 -0.05 0.031519976 99787.902
0.59308472 -0.05 0.032288153 99780.702
0.58685365 -0.05 0.033049549 99773.412
0.58062175 -0.05 0.03380405 99766.097
0.574389 -0.05 0.034551511 99758.699
0.5681554 -0.05 0.035291898 99751.193
0.56192096 -0.05 0.036025091 99743.641
0.55568565 -0.05 0.036750928 99736.03
0.54944949 -0.05 0.037469337 99728.304
0.54321245 -0.05 0.038180156 99720.549
0.53697453 -0.05 0.038883245 99712.711
0.53073575 -0.05 0.039578534 99704.831
0.52449608 -0.05 0.040265851 99696.933
0.51825552 -0.05 0.040945055 99688.983
0.51201407 -0.05 0.041615977 99681.002
0.50577171 -0.05 0.042278478 99672.932
0.49952847 -0.05 0.042932437 99664.824
0.4932843 -0.05 0.043577655 99656.722
0.48703922 -0.05 0.04421393 99648.652
0.48079322 -0.05 0.044841137 99640.506
0.47454631 -0.05 0.045459137 99632.284
0.46829846 -0.05 0.046067681 99624.038
0.46204968 -0.05 0.046666552 99615.791
0.45579997 -0.05 0.047255591 99607.549
0.44954932 -0.05 0.047834613 99599.301
0.44329773 -0.05 0.04840339 99591.014
0.4370452 -0.05 0.048961684 99582.682
0.43079172 -0.05 0.049509285 99574.299
0.42453729 -0.05 0.050045992 99565.888
0.41828192 -0.05 0.050571556 99557.51
0.4120256 -0.05 0.0510857 99549.157
0.40576835 -0.05 0.051588198 99540.734
0.39951013 -0.05 0.052078765 99532.28
0.39325097 -0.05 0.052557091 99523.796
0.38699088 -0.05 0.053022961 99515.258
0.38072985 -0.05 0.053476134 99506.685
0.37446788 -0.05 0.05391621 99498.229
0.36820499 -0.05 0.05434287 99489.732
0.36194118 -0.05 0.05475587 99481.156
0.35567647 -0.05 0.055154874 99472.494
0.34941086 -0.05 0.055539524 99463.82
0.34314436 -0.05 0.055909432 99455.177
0.33687699 -0.05 0.056264267 99446.508
0.33060876 -0.05 0.056603638 99437.928
0.32433969 -0.05 0.056927119 99429.323
0.31806981 -0.05 0.057234321 99420.469
0.31179913 -0.05 0.057524825 99411.288
0.30552767 -0.05 0.057798197 99403.474
