# wallShearStress  FACE_DATA 448
# x y z  wallShearStress_x wallShearStress_y wallShearStress_z
0.29468942 -0.05 -0.061866669 -7.0114695 3.5434178e-16 0.29554299
0.28905738 -0.05 -0.061624699 -6.9073834 -1.3377898e-16 0.30907532
0.28350705 -0.05 -0.061371657 -6.8762608 -2.1562538e-17 0.32584848
0.27803731 -0.05 -0.061107707 -6.8391986 6.9278261e-18 0.34253254
0.27264702 -0.05 -0.060833074 -6.8059477 1.716656e-16 0.35927424
0.26733508 -0.05 -0.060548008 -6.7743676 -1.9682186e-17 0.37617447
0.26210038 -0.05 -0.06025274 -6.7448138 7.2112573e-18 0.39314385
0.25694185 -0.05 -0.059947472 -6.7170556 4.5893669e-16 0.41032789
0.25185846 -0.05 -0.059632451 -6.6911683 -3.1530546e-16 0.42754847
0.24684911 -0.05 -0.05930788 -6.6672735 -1.901269e-16 0.44511665
0.24191281 -0.05 -0.058973904 -6.6447359 1.5699584e-16 0.46276257
0.23704855 -0.05 -0.058630758 -6.6238806 -2.9673266e-17 0.48059561
0.2322553 -0.05 -0.058278647 -6.6043307 -8.4242374e-17 0.49855529
0.22753208 -0.05 -0.057917793 -6.5858185 1.1589126e-16 0.51667041
0.22287791 -0.05 -0.057548401 -6.5686874 -3.7202099e-16 0.53505968
0.21829186 -0.05 -0.057170606 -6.5530043 -4.6236235e-17 0.55374622
0.21377297 -0.05 -0.056784634 -6.5390244 3.3271923e-16 0.57257308
0.2093203 -0.05 -0.05639067 -6.5269974 2.8200349e-16 0.59188621
0.20493294 -0.05 -0.055988812 -6.5160103 -2.2922914e-16 0.61139287
0.20061 -0.05 -0.055579288 -6.5064558 7.9546482e-17 0.63112168
0.19635058 -0.05 -0.055162276 -6.4982689 2.9429727e-16 0.65120026
0.19215378 -0.05 -0.054737974 -6.4913712 3.0326373e-16 0.67149254
0.18801877 -0.05 -0.05430655 -6.4859935 2.3379918e-16 0.69234498
0.18394468 -0.05 -0.053868054 -6.4813171 -1.6367059e-16 0.71353654
0.17993067 -0.05 -0.053422706 -6.4777655 -1.9151318e-16 0.73495218
0.17597593 -0.05 -0.052970667 -6.4756842 -2.3647287e-17 0.75692003
0.17207962 -0.05 -0.05251206 -6.4745755 -1.0248512e-16 0.77914296
0.16824096 -0.05 -0.052047066 -6.4752074 -3.3302148e-16 0.80194804
0.16445914 -0.05 -0.051575811 -6.477233 -4.0580803e-16 0.82522247
0.1607334 -0.05 -0.051098405 -6.4805028 1.4231503e-16 0.84906642
0.15706296 -0.05 -0.050614948 -6.4843625 4.2388065e-16 0.87319782
0.15344707 -0.05 -0.050125633 -6.4894572 1.0769467e-16 0.89785977
0.149885 -0.05 -0.049630544 -6.4954565 2.5708639e-16 0.92308321
0.146376 -0.05 -0.049129797 -6.5020561 -1.8820181e-16 0.94869622
0.14291936 -0.05 -0.04862351 -6.5097531 6.2222443e-16 0.97501336
0.13951437 -0.05 -0.048111749 -6.5181785 2.5568854e-17 1.0018561
0.13616032 -0.05 -0.047594644 -6.5275806 5.0492557e-16 1.0293079
0.13285654 -0.05 -0.047072285 -6.5376035 4.5007179e-16 1.0572908
0.12960234 -0.05 -0.046544813 -6.5483567 -6.3220111e-16 1.0858389
0.12639705 -0.05 -0.046012311 -6.5600174 -3.0377609e-17 1.1152645
0.12324004 -0.05 -0.045474779 -6.5715621 2.8027119e-16 1.1450769
0.12013065 -0.05 -0.044932375 -6.5840765 9.8130788e-17 1.1755514
0.11706824 -0.05 -0.044385192 -6.598415 4.5483669e-16 1.2072007
0.11405219 -0.05 -0.043833223 -6.6138853 -8.3961581e-16 1.2397706
0.11108192 -0.05 -0.043276517 -6.6301459 -4.8442563e-17 1.2731007
0.10815681 -0.05 -0.042715179 -6.6466628 2.1866792e-17 1.3071568
0.10527627 -0.05 -0.04214922 -6.6624937 2.9984679e-16 1.3418167
0.10243972 -0.05 -0.041578706 -6.6772783 6.201879e-16 1.3767901
0.099646563 -0.05 -0.04100377 -6.6924479 2.6365363e-16 1.4129085
0.096896277 -0.05 -0.040424332 -6.7071364 -8.8458576e-16 1.4498287
0.094188313 -0.05 -0.039840421 -6.7220286 -6.6776839e-17 1.4875163
0.091522116 -0.05 -0.039252158 -6.7389977 2.3985341e-16 1.5270079
0.088897183 -0.05 -0.038659438 -6.7562653 -7.176956e-16 1.5675904
0.086312994 -0.05 -0.038062302 -6.7728357 -9.3628502e-17 1.6087482
0.083769034 -0.05 -0.037460794 -6.789787 9.2442869e-17 1.6512037
0.081264811 -0.05 -0.03685492 -6.8064255 -1.3626395e-16 1.6945235
0.078799834 -0.05 -0.0362447 -6.8236357 1.067147e-16 1.7394744
0.076373661 -0.05 -0.03563001 -6.8399468 7.7556474e-16 1.7853971
0.073985834 -0.05 -0.03501082 -6.8555833 -3.2204532e-17 1.8323694
0.071635884 -0.05 -0.034387183 -6.8706452 2.2720401e-16 1.8806345
0.069323367 -0.05 -0.033759098 -6.8846822 2.4473025e-16 1.9303249
0.067047882 -0.05 -0.033126432 -6.896067 -4.305111e-16 1.9808433
0.06480902 -0.05 -0.032489127 -6.9050319 4.1901621e-16 2.0321578
0.062606371 -0.05 -0.031847162 -6.9134854 -7.1016607e-16 2.0851196
0.060439564 -0.05 -0.031200426 -6.921741 -2.6944384e-19 2.1399945
0.058308232 -0.05 -0.030548817 -6.9295372 3.1773588e-16 2.196899
0.056212015 -0.05 -0.029892257 -6.936834 4.7908094e-16 2.2556353
0.054150579 -0.05 -0.02923063 -6.942467 1.6628579e-16 2.3161086
0.052123573 -0.05 -0.028563883 -6.9470807 -1.4667521e-16 2.3788388
0.050130718 -0.05 -0.027891814 -6.9495806 -4.7738951e-17 2.4432061
0.04817173 -0.05 -0.027214258 -6.9471916 7.7544301e-17 2.5077446
0.046246308 -0.05 -0.026531136 -6.941664 -9.7765711e-16 2.574218
0.044354207 -0.05 -0.025842253 -6.9329249 2.2323159e-16 2.6436594
0.0424952 -0.05 -0.025147411 -6.921941 3.0495954e-17 2.7168019
0.04066911 -0.05 -0.024446325 -6.9038256 -3.0884743e-16 2.7901065
0.038875743 -0.05 -0.023738794 -6.8750486 -4.6226327e-16 2.8625207
0.037114912 -0.05 -0.023024658 -6.8391102 -5.4404492e-17 2.9357
0.035386495 -0.05 -0.022303623 -6.7980424 1.1085207e-16 3.0106814
0.033690404 -0.05 -0.02157538 -6.7564725 8.3912398e-17 3.0898852
0.032026582 -0.05 -0.020839609 -6.7209367 4.7670226e-16 3.1760067
0.030394989 -0.05 -0.020095995 -6.6870279 3.3038485e-16 3.2661342
0.028795635 -0.05 -0.019344182 -6.6423297 4.7127693e-16 3.3539985
0.027228597 -0.05 -0.018583743 -6.576206 -4.5394659e-16 3.4370242
0.025693963 -0.05 -0.0178143 -6.4845794 -9.8174514e-17 3.5166682
0.024191904 -0.05 -0.017035375 -6.3588634 -9.2472866e-16 3.5936071
0.022722652 -0.05 -0.016246461 -6.1981787 5.7881058e-16 3.6724613
0.021286493 -0.05 -0.015447061 -6.0227812 1.8255496e-16 3.7639688
0.019883838 -0.05 -0.014636567 -5.8454733 3.1692106e-17 3.8711923
0.018515121 -0.05 -0.013814426 -5.6568113 5.8922915e-18 3.991836
0.017180948 -0.05 -0.012979939 -5.4658021 -5.2307977e-16 4.131233
0.015882014 -0.05 -0.01213238 -5.2769422 -2.0608837e-16 4.2916674
0.014619105 -0.05 -0.011271041 -5.0968425 3.3610395e-16 4.474589
0.013393204 -0.05 -0.010395117 -4.9409294 -5.2456421e-16 4.6738111
0.012205472 -0.05 -0.009503801 -4.8365399 6.1133068e-17 4.8882543
0.01105727 -0.05 -0.0085962591 -4.7686953 8.4588721e-17 5.1089616
0.009950191 -0.05 -0.0076715643 -4.6879359 1.2462795e-15 5.3026079
0.0088860262 -0.05 -0.0067287406 -4.551424 3.7998837e-17 5.4371766
0.0078668752 -0.05 -0.0057670217 -4.3340269 -2.8805871e-16 5.5036685
0.0068952612 -0.05 -0.004785676 -4.0316392 -4.7006045e-17 5.495554
0.0059739595 -0.05 -0.0037837327 -3.659868 -6.3566458e-17 5.3934939
0.0051060561 -0.05 -0.002760593 -3.2323543 -4.8850051e-16 5.1773505
0.004295287 -0.05 -0.0017162477 -2.7671272 4.3281794e-16 4.8600069
0.0035455351 -0.05 -0.00065048159 -2.2808633 3.3558272e-17 4.4243308
0.0028608767 -0.05 0.00043635929 -1.7933443 1.5068662e-16 3.8721587
0.0022459924 -0.05 0.0015427614 -1.3274799 -2.1470961e-16 3.2175162
0.0017053919 -0.05 0.0026670645 -0.90863137 -5.7938977e-16 2.4707651
0.0012433094 -0.05 0.0038065941 -0.55868811 -2.2846661e-16 1.6383496
0.00086350259 -0.05 0.0049571555 -0.31831148 2.4082834e-16 0.87973563
0.00056886836 -0.05 0.0061142259 -0.17895677 -1.1115123e-16 0.29378752
0.00036094045 -0.05 0.0072724329 -0.11368317 9.5423334e-17 -0.25571311
0.00023955402 -0.05 0.0084257202 -0.094994981 2.7878873e-17 -0.8973785
0.00020296523 -0.05 0.0095680889 -0.1417573 -3.8797575e-18 -1.7217959
0.99626134 -0.05 -0.030730727 -21.688613 1.3534762e-15 -2.3008631
0.99001698 -0.05 -0.031373949 -25.716767 1.3845681e-15 -2.6291392
0.98377188 -0.05 -0.032010148 -26.009696 -1.1834765e-15 -2.6205551
0.97752608 -0.05 -0.032639351 -25.797103 5.9416118e-16 -2.5722677
0.97127959 -0.05 -0.033261668 -25.675705 -1.1482813e-15 -2.5320803
0.96503244 -0.05 -0.033877256 -25.516539 7.8613943e-16 -2.4887284
0.95878462 -0.05 -0.034486098 -25.351461 -2.5945412e-16 -2.4450756
0.95253616 -0.05 -0.03508826 -25.17322 -6.3458025e-17 -2.4013558
0.94628707 -0.05 -0.035683896 -24.986756 7.1515988e-17 -2.357365
0.94003737 -0.05 -0.036273091 -24.795443 -5.8437241e-16 -2.3136192
0.93378707 -0.05 -0.036855851 -24.602523 3.4142101e-16 -2.2699594
0.92753618 -0.05 -0.037432238 -24.409542 1.255265e-16 -2.2273249
0.9212847 -0.05 -0.038002327 -24.215985 -1.4477773e-16 -2.1850191
0.91503267 -0.05 -0.038566154 -24.020762 2.5964094e-16 -2.1435687
0.90878008 -0.05 -0.039123872 -23.822164 -5.0185374e-16 -2.1025251
0.90252695 -0.05 -0.039675477 -23.616857 -4.2551465e-16 -2.061332
0.89627329 -0.05 -0.040221002 -23.404112 -5.2103022e-16 -2.0203028
0.89001911 -0.05 -0.040760585 -23.187114 -1.2796611e-15 -1.9794202
0.88376443 -0.05 -0.041294238 -22.970085 1.6040385e-16 -1.9387222
0.87750923 -0.05 -0.041821904 -22.755998 4.8823569e-16 -1.8987682
0.87125354 -0.05 -0.042343723 -22.546606 -1.1056409e-15 -1.8601521
0.86499738 -0.05 -0.042859763 -22.340711 1.9629298e-16 -1.8221028
0.85874074 -0.05 -0.043369995 -22.1352 -1.313654e-15 -1.7848812
0.85248363 -0.05 -0.043874506 -21.926092 -1.3899692e-16 -1.7480638
0.84622608 -0.05 -0.04437336 -21.710117 -3.6629255e-16 -1.711226
0.83996807 -0.05 -0.044866544 -21.48759 -1.603556e-16 -1.6740358
0.83370962 -0.05 -0.045354019 -21.264128 -4.6262617e-16 -1.6371258
0.82745072 -0.05 -0.045835964 -21.047905 4.1104962e-17 -1.6013793
0.82119141 -0.05 -0.046312338 -20.840261 8.3289694e-16 -1.5661565
0.81493168 -0.05 -0.046783095 -20.638626 -4.4839744e-16 -1.5324343
0.80867153 -0.05 -0.047248314 -20.438186 -1.0247943e-15 -1.4992909
0.80241098 -0.05 -0.047708005 -20.231293 6.5119827e-16 -1.4665983
0.79615002 -0.05 -0.048162202 -20.010932 7.1250516e-17 -1.4332546
0.78988866 -0.05 -0.048610858 -19.780162 4.2800207e-17 -1.3993983
0.78362691 -0.05 -0.049054061 -19.551609 4.4846317e-16 -1.3658861
0.77736479 -0.05 -0.049491775 -19.331727 -9.9962382e-16 -1.3330057
0.77110227 -0.05 -0.049923969 -19.119978 -5.0848957e-16 -1.30152
0.76483938 -0.05 -0.050350704 -18.909331 -5.3153448e-16 -1.2709542
0.75857611 -0.05 -0.050771966 -18.683202 -7.6135859e-16 -1.2403151
0.75231249 -0.05 -0.051187745 -18.430627 -5.8573169e-17 -1.2083837
0.7460485 -0.05 -0.051598015 -18.169776 -3.2955042e-16 -1.1759229
0.73978415 -0.05 -0.052002758 -17.910979 -1.9705357e-16 -1.1437763
0.73351945 -0.05 -0.052401962 -17.653681 -2.9109701e-16 -1.1120758
0.72725439 -0.05 -0.052795589 -17.396425 1.1478729e-15 -1.0807573
0.72098899 -0.05 -0.053183675 -17.139681 1.1000072e-16 -1.0500639
0.71472325 -0.05 -0.053566248 -16.884352 2.2569748e-16 -1.019697
0.70845716 -0.05 -0.053943135 -16.629904 -7.8398215e-16 -0.98945968
0.70219074 -0.05 -0.054314386 -16.377866 8.2475376e-16 -0.96017386
0.69592398 -0.05 -0.054679967 -16.128977 5.5891517e-16 -0.93042356
0.68965688 -0.05 -0.055039784 -15.883505 -7.8538193e-16 -0.90140046
0.68338947 -0.05 -0.055393895 -15.639883 -1.0178454e-15 -0.87273442
0.67712173 -0.05 -0.055742201 -15.397451 2.4163468e-16 -0.84456109
0.67085367 -0.05 -0.056084714 -15.15665 1.3150332e-16 -0.81693232
0.66458529 -0.05 -0.056421316 -14.916436 -3.1749843e-16 -0.78949717
0.65831659 -0.05 -0.056751906 -14.675926 3.0161445e-16 -0.76260272
0.65204758 -0.05 -0.057076571 -14.434724 7.2909868e-16 -0.73613514
0.64577826 -0.05 -0.057395224 -14.191444 -2.2332644e-16 -0.7098018
0.63950863 -0.05 -0.057707698 -13.948317 -5.7361322e-16 -0.6839625
0.63323869 -0.05 -0.058013961 -13.708355 3.5857653e-17 -0.65871295
0.62696846 -0.05 -0.058314015 -13.472217 -9.0501156e-17 -0.63398954
0.62069792 -0.05 -0.058607723 -13.239914 -1.2547053e-16 -0.60967746
0.61442709 -0.05 -0.058895 -13.011016 5.4449235e-16 -0.58597088
0.60815597 -0.05 -0.059175843 -12.786905 -2.1261896e-16 -0.56262123
0.60188455 -0.05 -0.059450108 -12.568658 -1.5368453e-16 -0.53964408
0.59561285 -0.05 -0.059717722 -12.358049 -9.9883253e-17 -0.51730669
0.58934086 -0.05 -0.059978601 -12.157375 7.1892044e-17 -0.49555444
0.58306859 -0.05 -0.060232655 -11.96799 -1.2611485e-16 -0.474685
0.57679604 -0.05 -0.060479769 -11.78745 -2.4470446e-16 -0.45438714
0.57052322 -0.05 -0.060719797 -11.612296 -3.2800172e-16 -0.43463993
0.56425013 -0.05 -0.060952708 -11.441789 -2.2313832e-16 -0.4152985
0.55797678 -0.05 -0.061178378 -11.275351 -3.2101565e-16 -0.39617596
0.55170316 -0.05 -0.061396646 -11.112517 -5.6585796e-18 -0.37735343
0.54542929 -0.05 -0.061607441 -10.953486 1.5957731e-16 -0.35886314
0.53915517 -0.05 -0.061810601 -10.79795 -1.2774215e-16 -0.34050935
0.53288081 -0.05 -0.062005986 -10.645663 -2.2935535e-16 -0.32253835
0.5266062 -0.05 -0.062193525 -10.49699 -1.410734e-16 -0.30477893
0.52033136 -0.05 -0.062373048 -10.351613 -5.000114e-16 -0.28721616
0.51405628 -0.05 -0.06254441 -10.209501 2.8502858e-16 -0.26989148
0.50778099 -0.05 -0.062707446 -10.070461 -1.6060412e-16 -0.25272468
0.50150548 -0.05 -0.062862016 -9.9344911 4.5984658e-17 -0.23584116
0.49522978 -0.05 -0.063007999 -9.8018066 9.0674067e-19 -0.21909704
0.48895386 -0.05 -0.063145197 -9.67213 -7.6605962e-17 -0.20249581
0.48267775 -0.05 -0.063273406 -9.5451492 5.3019043e-17 -0.18604595
0.47640148 -0.05 -0.063392503 -9.4210855 2.175099e-17 -0.16985982
0.47012503 -0.05 -0.063502348 -9.3002049 -1.0959611e-16 -0.15374341
0.46384842 -0.05 -0.063602693 -9.1820865 -1.4879864e-16 -0.13770132
0.45757166 -0.05 -0.063693322 -9.0665259 8.2957299e-17 -0.1218113
0.45129478 -0.05 -0.063774075 -8.9536893 -7.468528e-17 -0.10608078
0.44501776 -0.05 -0.063844768 -8.843621 6.898478e-18 -0.09047819
0.43874064 -0.05 -0.063905174 -8.736214 -2.1553728e-17 -0.075081962
0.43246343 -0.05 -0.063955055 -8.6312152 -1.9195258e-17 -0.060060077
0.42618614 -0.05 -0.063994201 -8.5285623 -4.5364904e-18 -0.044866182
0.4199088 -0.05 -0.064022412 -8.4284023 1.4001033e-19 -0.028420202
0.41363141 -0.05 -0.064039441 -8.3308675 1.264376e-17 -0.012630813
0.40735401 -0.05 -0.06404501 -8.2356083 7.323284e-21 0.0030268873
0.4010766 -0.05 -0.064038895 -8.1429127 7.8180567e-18 0.018967574
0.39479922 -0.05 -0.064020811 -8.0526777 1.1189238e-17 0.034933611
0.38852188 -0.05 -0.06399045 -7.9646149 1.4203595e-17 0.049655375
0.38224462 -0.05 -0.063947598 -7.8788313 5.263354e-17 0.064751777
0.37596746 -0.05 -0.063892015 -7.7957805 2.0774886e-17 0.080026148
0.36969043 -0.05 -0.063823303 -7.7148515 -6.7943207e-17 0.095481632
0.36341355 -0.05 -0.063741143 -7.6358572 -3.3558055e-17 0.11087062
0.35713688 -0.05 -0.063645294 -7.5592855 -1.3385612e-16 0.12638079
0.35086043 -0.05 -0.063535421 -7.4849675 -4.9750924e-17 0.14216143
0.34458426 -0.05 -0.063411169 -7.4128884 -2.0584668e-18 0.1580868
0.33830839 -0.05 -0.063272151 -7.3430787 9.5132409e-17 0.17416519
0.33203287 -0.05 -0.06311804 -7.2760863 2.130356e-16 0.19034381
0.32575776 -0.05 -0.062948446 -7.2122027 -2.4826959e-16 0.20681522
0.3194831 -0.05 -0.062762947 -7.1509543 2.8170182e-17 0.22345174
0.31320893 -0.05 -0.062561153 -7.0925039 2.2742188e-16 0.24039357
0.30693532 -0.05 -0.062342654 -7.0419272 -1.1841974e-16 0.2579051
0.30066235 -0.05 -0.062107018 -7.0577776 -4.3016276e-16 0.27804096
0.29955491 -0.05 0.058042563 -7.3056902 4.5434867e-16 0.27739665
0.29392178 -0.05 0.058257694 -7.5335605 3.0579267e-16 0.26644544
0.2883692 -0.05 0.058455169 -7.6853894 1.0556592e-16 0.25225628
0.28289606 -0.05 0.058635244 -7.8398248 -6.1403502e-17 0.23634551
0.27750125 -0.05 0.058798232 -7.9924387 2.0072878e-16 0.21944929
0.27218367 -0.05 0.058944475 -8.1446275 2.1240762e-16 0.20145009
0.26694226 -0.05 0.059074291 -8.2958103 -1.9924109e-16 0.18243959
0.26177596 -0.05 0.059187969 -8.4461101 -4.8366443e-17 0.16228997
0.25668374 -0.05 0.059285839 -8.5956641 7.9001349e-17 0.14123784
0.25166458 -0.05 0.059368189 -8.7447675 1.4384175e-17 0.11919437
0.24671745 -0.05 0.059435247 -8.8922703 1.0418316e-16 0.096962706
0.24184136 -0.05 0.059487332 -9.038243 -4.3268928e-17 0.073375728
0.23703535 -0.05 0.059524725 -9.182592 2.0740136e-17 0.045540167
0.23229842 -0.05 0.059547731 -9.3255764 -1.3466924e-17 0.018179561
0.22762963 -0.05 0.059556633 -9.4670316 -1.0817052e-18 -0.011029568
0.22302804 -0.05 0.05955164 -9.6072966 -8.0035049e-18 -0.041824824
0.21849273 -0.05 0.059533056 -9.7468363 1.2745185e-17 -0.072094094
0.21402278 -0.05 0.059501141 -9.8858611 -3.7384058e-17 -0.10230758
0.2096173 -0.05 0.059456066 -10.023191 2.4257544e-17 -0.1340705
0.20527538 -0.05 0.059398131 -10.15941 5.8973608e-17 -0.16708006
0.20099617 -0.05 0.059327588 -10.294655 -4.0971801e-17 -0.20191087
0.1967788 -0.05 0.059244702 -10.429117 -9.3106087e-17 -0.23799033
0.19262243 -0.05 0.059149713 -10.562877 -2.337117e-17 -0.27552386
0.1885262 -0.05 0.059042741 -10.694576 -1.407163e-16 -0.31424055
0.1844893 -0.05 0.05892407 -10.824597 -1.8968117e-16 -0.35394679
0.18051094 -0.05 0.058793928 -10.953202 8.1381405e-17 -0.39512453
0.17659029 -0.05 0.058652507 -11.079911 -2.3202793e-17 -0.43733354
0.17272657 -0.05 0.058500048 -11.20531 4.0675663e-17 -0.48093221
0.16891901 -0.05 0.058336745 -11.328993 -3.1272674e-16 -0.52576844
0.16516683 -0.05 0.058162767 -11.45098 2.4961807e-17 -0.57206681
0.1614693 -0.05 0.057978275 -11.571004 -3.7476054e-16 -0.6194648
0.15782566 -0.05 0.057783526 -11.690103 2.5195666e-16 -0.66824751
0.15423518 -0.05 0.057578664 -11.807871 -1.0670071e-16 -0.71852403
0.15069714 -0.05 0.05736386 -11.924193 7.6316914e-18 -0.77002189
0.14721085 -0.05 0.057139294 -12.03943 -8.4158167e-17 -0.82311823
0.14377558 -0.05 0.056905087 -12.152692 1.4643814e-16 -0.87750046
0.14039066 -0.05 0.056661426 -12.264263 -7.7044998e-17 -0.93327316
0.13705542 -0.05 0.056408455 -12.373966 -9.3763766e-17 -0.99042589
0.13376918 -0.05 0.056146371 -12.482258 -1.6618348e-16 -1.0489675
0.13053129 -0.05 0.05587531 -12.589027 2.7510157e-16 -1.1093746
0.12734111 -0.05 0.055595326 -12.692942 -1.8093703e-16 -1.1709989
0.124198 -0.05 0.055306626 -12.795171 -1.9351072e-16 -1.2340336
0.12110132 -0.05 0.055009359 -12.895923 -1.6471676e-16 -1.2990804
0.11805047 -0.05 0.054703562 -12.994051 2.1707386e-16 -1.3657254
0.11504486 -0.05 0.054389336 -13.08965 -2.4427299e-16 -1.4338346
0.11208388 -0.05 0.054066836 -13.18323 -5.7932731e-16 -1.5036493
0.10916695 -0.05 0.053736117 -13.274039 -7.3438981e-16 -1.5751453
0.10629351 -0.05 0.053397295 -13.362084 -3.4387563e-16 -1.6478361
0.10346296 -0.05 0.05305055 -13.448698 7.1655944e-16 -1.7228851
0.10067477 -0.05 0.052695843 -13.531862 4.8672015e-16 -1.7997651
0.097928399 -0.05 0.05233325 -13.61152 -1.3409566e-16 -1.8779246
0.095223305 -0.05 0.051962935 -13.688806 -1.3879292e-16 -1.9585482
0.09255898 -0.05 0.051584834 -13.761449 6.6125581e-16 -2.0409751
0.089934907 -0.05 0.051199032 -13.829448 6.2058415e-16 -2.1247187
0.087350578 -0.05 0.050805612 -13.893775 -6.5227288e-16 -2.2106993
0.084805499 -0.05 0.050404621 -13.954219 4.4297566e-17 -2.2984689
0.082299186 -0.05 0.049996119 -14.011705 -5.3250489e-16 -2.3892259
0.079831186 -0.05 0.049580017 -14.064484 2.0627866e-16 -2.4820752
0.077401042 -0.05 0.049156324 -14.113252 3.7580305e-16 -2.5768964
0.075008291 -0.05 0.048725129 -14.159605 -3.6738482e-16 -2.6742799
0.07265249 -0.05 0.048286468 -14.204273 1.136133e-16 -2.775232
0.070333227 -0.05 0.047840241 -14.246328 8.8514794e-17 -2.8792658
0.068050091 -0.05 0.047386424 -14.286681 1.68809e-16 -2.9863678
0.065802672 -0.05 0.046925026 -14.327239 1.4362101e-16 -3.0975858
0.063590589 -0.05 0.04645597 -14.364956 -9.768495e-16 -3.2125065
0.06141347 -0.05 0.045979184 -14.399251 -5.063532e-16 -3.331158
0.059270951 -0.05 0.045494618 -14.429648 3.1139097e-16 -3.4538938
0.057162686 -0.05 0.045002181 -14.455243 4.2856711e-16 -3.580891
0.055088326 -0.05 0.044501852 -14.475778 3.9488024e-16 -3.7134391
0.053047572 -0.05 0.043993453 -14.49179 7.8200161e-16 -3.8520559
0.051040127 -0.05 0.043476841 -14.504625 6.0720265e-16 -3.9966201
0.049065689 -0.05 0.042951962 -14.519808 -3.0516001e-17 -4.1499486
0.047123995 -0.05 0.042418641 -14.538614 6.5258962e-16 -4.3125216
0.045214805 -0.05 0.0418767 -14.561203 7.3367618e-16 -4.4851525
0.043337916 -0.05 0.041325869 -14.588615 2.9150065e-16 -4.667305
0.041493121 -0.05 0.040765962 -14.619007 4.7610956e-16 -4.8589359
0.039680219 -0.05 0.040196834 -14.64983 9.9824495e-16 -5.0614727
0.037899066 -0.05 0.039618206 -14.678126 -1.2058184e-15 -5.2749629
0.03614955 -0.05 0.039029774 -14.699698 8.0559336e-16 -5.4989186
0.034431585 -0.05 0.038431224 -14.711463 3.7845976e-16 -5.7334522
0.032745109 -0.05 0.037822245 -14.70893 -6.2049825e-16 -5.9787997
0.031090102 -0.05 0.037202483 -14.688319 3.263159e-16 -6.2356632
0.029466605 -0.05 0.036571505 -14.64363 -6.8318319e-16 -6.5035619
0.027874675 -0.05 0.035928926 -14.572092 5.1593778e-16 -6.7839003
0.026314445 -0.05 0.035274258 -14.470348 7.1379435e-16 -7.0771722
0.024786107 -0.05 0.034606976 -14.338738 -1.4059535e-15 -7.3847214
0.023289903 -0.05 0.033926562 -14.178294 1.2072328e-15 -7.7083929
0.021826193 -0.05 0.033232374 -13.989687 -6.6695739e-16 -8.0477051
0.020395365 -0.05 0.032523829 -13.775903 -4.9387466e-16 -8.4041903
0.018997969 -0.05 0.03180018 -13.543563 5.2125788e-17 -8.7756766
0.017634636 -0.05 0.031060647 -13.295499 1.06728e-15 -9.1591306
0.016306093 -0.05 0.030304458 -13.037137 -6.1512138e-16 -9.5524317
0.015013256 -0.05 0.029530737 -12.760578 4.5575169e-17 -9.9494871
0.013757215 -0.05 0.028738581 -12.455637 5.6514841e-16 -10.342456
0.012539259 -0.05 0.027927049 -12.108354 9.6940825e-16 -10.723249
0.0113609 -0.05 0.02709509 -11.709801 -4.9913529e-16 -11.078992
0.010223847 -0.05 0.026241583 -11.25068 -5.6050029e-16 -11.397836
0.0091301283 -0.05 0.025365597 -10.724942 -8.2172358e-16 -11.673974
0.0080822001 -0.05 0.024466198 -10.118584 2.4632095e-16 -11.893992
0.0070827501 -0.05 0.023542192 -9.424225 -9.1545443e-17 -12.023346
0.0061348055 -0.05 0.022592733 -8.643687 -3.8478571e-16 -12.042942
0.0052420895 -0.05 0.021617509 -7.7887972 -2.7698906e-16 -11.947109
0.0044084543 -0.05 0.020615991 -6.8747648 -5.769446e-17 -11.708294
0.0036379913 -0.05 0.019588194 -5.9071703 2.5617989e-16 -11.299598
0.0029354882 -0.05 0.018535247 -4.9209977 -2.6438073e-16 -10.710741
0.0023055743 -0.05 0.017458439 -3.9453553 2.0393054e-16 -9.9332113
0.0017526867 -0.05 0.016360094 -3.01288 2.7167468e-16 -8.972786
0.0012809104 -0.05 0.015244087 -2.1570786 3.3264678e-16 -7.8577923
0.00089349931 -0.05 0.014114692 -1.4129954 4.8340224e-17 -6.6326896
0.00059241748 -0.05 0.012977138 -0.850836 1.8522699e-16 -5.3558942
0.00037799121 -0.05 0.011837477 -0.47400746 -1.3920607e-16 -4.0743002
0.00024896841 -0.05 0.010701828 -0.24586021 -3.533233e-17 -2.8477731
0.9962978 -0.05 -0.029832114 0.013189188 -8.1376193e-16 0.19756617
0.99012608 -0.05 -0.02868509 0.024047749 3.1531676e-16 -0.0026616202
0.98395306 -0.05 -0.027545008 0.020801561 -1.8746587e-16 -0.0029243547
0.97777877 -0.05 -0.02641184 0.0093699887 1.6468462e-16 -0.0010393503
0.97160324 -0.05 -0.025285482 0.014892651 7.3240587e-16 -0.00200988
0.96542649 -0.05 -0.024165775 0.012188447 3.9570049e-16 -0.0015009603
0.95924855 -0.05 -0.023052738 0.013687118 -7.6686733e-16 -0.0017879268
0.95306942 -0.05 -0.021946309 0.013248813 1.3274173e-15 -0.0016441032
0.94688913 -0.05 -0.020846333 0.013812209 -4.175308e-16 -0.0016930307
0.94070771 -0.05 -0.019752726 0.0140719 -1.3549671e-15 -0.0016523516
0.93452517 -0.05 -0.018665483 0.014488105 4.0994474e-16 -0.0017104103
0.92834153 -0.05 -0.017584547 0.014753115 -1.3438123e-16 -0.0017132666
0.92215679 -0.05 -0.016509841 0.015324097 4.0379518e-16 -0.0016194516
0.91597098 -0.05 -0.015441329 0.017886355 -6.6070863e-16 -0.0016994973
0.90978414 -0.05 -0.014378862 0.019100565 2.7763933e-16 -0.002197378
0.90359626 -0.05 -0.013322444 0.018838459 -2.7867043e-16 -0.0024076117
0.89740736 -0.05 -0.012272044 0.01761858 -4.7197405e-16 -0.0022458917
0.89121746 -0.05 -0.011227524 0.015948525 1.5952068e-16 -0.0019214668
0.88502657 -0.05 -0.010188873 0.014356385 -1.5758222e-16 -0.0015968704
0.87883469 -0.05 -0.009156148 0.012999989 5.4141358e-17 -0.0013120951
0.87264185 -0.05 -0.0081292114 0.010802225 -9.2973208e-16 -0.00094674961
0.86644806 -0.05 -0.007107996 0.0079086783 1.4514756e-16 -0.00047437186
0.86025333 -0.05 -0.0060925305 0.0043357095 -6.5292225e-16 9.8676736e-05
0.85405767 -0.05 -0.0050827293 4.4963507e-05 2.1690932e-16 0.00078052922
0.8478611 -0.05 -0.0040785301 -0.005006973 -9.3764435e-17 0.0015212996
0.84166362 -0.05 -0.003079947 -0.0099824789 -6.5002759e-16 0.0022789789
0.83546524 -0.05 -0.002087016 -0.014959243 -1.3346326e-15 0.0030682592
0.82926597 -0.05 -0.001099563 -0.020535993 -5.8314412e-17 0.0039341788
0.82306583 -0.05 -0.00011762805 -0.026776793 -8.0468983e-16 0.0048952779
0.81686482 -0.05 0.00085874232 -0.033709041 1.0178347e-16 0.0059487744
0.81066295 -0.05 0.0018296272 -0.041433855 -6.8407467e-17 0.0071133101
0.80446021 -0.05 0.0027950359 -0.04996844 8.1919392e-16 0.0083815486
0.79825664 -0.05 0.0037549996 -0.059496551 9.8314825e-16 0.0097775908
0.79205222 -0.05 0.0047094733 -0.070133529 1.1975053e-15 0.011315762
0.78584696 -0.05 0.0056585429 -0.082106123 3.4829342e-17 0.013029027
0.77964089 -0.05 0.0066021733 -0.09542618 -3.1097646e-16 0.014922136
0.77343397 -0.05 0.0075403329 -0.11006128 1.0399581e-15 0.016986696
0.76722625 -0.05 0.0084730822 -0.12605338 9.6686656e-16 0.019228027
0.76101771 -0.05 0.009400407 -0.14334198 2.0028824e-16 0.021650735
0.75480836 -0.05 0.010322297 -0.16207705 -2.5025768e-17 0.024312987
0.7485982 -0.05 0.011238724 -0.18303395 -1.1072803e-16 0.027172709
0.74238724 -0.05 0.012149671 -0.20582759 3.9087775e-16 0.03026277
0.73617546 -0.05 0.013055127 -0.23034917 6.2263291e-16 0.033565065
0.7299629 -0.05 0.013955052 -0.25650262 -3.6478107e-16 0.037061417
0.72374954 -0.05 0.014849483 -0.28431347 8.0970875e-16 0.040750597
0.71753539 -0.05 0.015738446 -0.31395069 -2.9658651e-16 0.044636442
0.71132043 -0.05 0.01662177 -0.34533842 -1.0087171e-15 0.048717027
0.70510469 -0.05 0.017499503 -0.37862253 -1.480773e-16 0.053000226
0.69888816 -0.05 0.018371613 -0.41391461 9.1093226e-16 0.057498192
0.69267082 -0.05 0.019238004 -0.45099517 9.7383246e-16 0.062179997
0.6864527 -0.05 0.020098735 -0.49021028 2.9525463e-16 0.06708077
0.68023379 -0.05 0.020953707 -0.53144856 1.0580911e-15 0.072179907
0.67401408 -0.05 0.021802929 -0.57497871 -1.1732185e-16 0.077502927
0.66779357 -0.05 0.022646286 -0.62073177 -6.2782942e-17 0.083028784
0.66157227 -0.05 0.023483678 -0.66852277 3.5244918e-17 0.088753477
0.65535018 -0.05 0.024315188 -0.71866466 -5.4214264e-17 0.094693747
0.64912729 -0.05 0.025140731 -0.77123281 1.046711e-16 0.10082866
0.64290358 -0.05 0.025960141 -0.82608131 -2.9574464e-16 0.107152
0.63667907 -0.05 0.026773385 -0.88327642 6.5557741e-16 0.11367365
0.63045376 -0.05 0.027580465 -0.94288277 -1.5486342e-16 0.12037903
0.62422763 -0.05 0.028381244 -1.0048052 1.2217532e-15 0.1272523
0.61800069 -0.05 0.029175637 -1.0691522 9.3766855e-16 0.13430521
0.61177293 -0.05 0.029963641 -1.136127 4.1604085e-16 0.14152262
0.60554436 -0.05 0.030745111 -1.2054016 1.2776697e-15 0.14887651
0.59931495 -0.05 0.031519976 -1.2769098 4.753235e-16 0.15640046
0.59308472 -0.05 0.032288153 -1.3518077 -3.2034759e-16 0.16433688
0.58685365 -0.05 0.033049549 -1.4340707 2.3673841e-16 0.17280909
0.58062175 -0.05 0.03380405 -1.5224995 -1.6920619e-16 0.18140331
0.574389 -0.05 0.034551511 -1.6137626 4.4316602e-16 0.19032737
0.5681554 -0.05 0.035291898 -1.7073773 -3.3302789e-16 0.19939904
0.56192096 -0.05 0.036025091 -1.8029963 3.560924e-16 0.20844281
0.55568565 -0.05 0.036750928 -1.9003345 7.9921861e-18 0.21743403
0.54944949 -0.05 0.037469337 -1.9997213 1.6621973e-17 0.22637479
0.54321245 -0.05 0.038180156 -2.1012383 -8.9801605e-16 0.23524723
0.53697453 -0.05 0.038883245 -2.2045647 -6.7830616e-16 0.24406213
0.53073575 -0.05 0.039578534 -2.3098554 2.237966e-16 0.25277664
0.52449608 -0.05 0.040265851 -2.4167482 -5.1763223e-16 0.26134795
0.51825552 -0.05 0.040945055 -2.525253 -9.0171512e-16 0.26975646
0.51201407 -0.05 0.041615977 -2.6355487 3.7193817e-16 0.27798629
0.50577171 -0.05 0.042278478 -2.7477538 7.8636656e-16 0.2860703
0.49952847 -0.05 0.042932437 -2.8620413 -6.4971628e-16 0.29396672
0.4932843 -0.05 0.043577655 -2.9778891 7.3405481e-16 0.30162686
0.48703922 -0.05 0.04421393 -3.0949561 -5.3142305e-16 0.30900494
0.48079322 -0.05 0.044841137 -3.2135186 3.3179773e-16 0.31613474
0.47454631 -0.05 0.045459137 -3.3342501 -5.6350546e-16 0.32297312
0.46829846 -0.05 0.046067681 -3.4569432 5.9435374e-16 0.32950792
0.46204968 -0.05 0.046666552 -3.5812168 -5.2816137e-16 0.33572338
0.45579997 -0.05 0.047255591 -3.7068972 -1.0060015e-16 0.34158856
0.44954932 -0.05 0.047834613 -3.833999 3.8018373e-16 0.34704721
0.44329773 -0.05 0.04840339 -3.9627278 5.4666928e-17 0.35207328
0.4370452 -0.05 0.048961684 -4.0933083 1.2909461e-16 0.3566723
0.43079172 -0.05 0.049509285 -4.2257941 -4.0738303e-16 0.36085353
0.42453729 -0.05 0.050045992 -4.3601553 -7.3306026e-16 0.36457144
0.41828192 -0.05 0.050571556 -4.4960729 -4.9820452e-16 0.36775128
0.4120256 -0.05 0.0510857 -4.6332769 2.6678707e-16 0.37036337
0.40576835 -0.05 0.051588198 -4.772091 6.2721517e-16 0.37240077
0.39951013 -0.05 0.052078765 -4.9128101 2.4308974e-16 0.37377661
0.39325097 -0.05 0.052557091 -5.0552592 6.7050721e-16 0.37454212
0.38699088 -0.05 0.053022961 -5.1996977 2.2429089e-16 0.37470114
0.38072985 -0.05 0.053476134 -5.3460338 -3.3648381e-16 0.37412434
0.37446788 -0.05 0.05391621 -5.4937402 -2.0584611e-16 0.37269002
0.36820499 -0.05 0.05434287 -5.6426021 -1.7217466e-16 0.37051435
0.36194118 -0.05 0.05475587 -5.7936617 -6.0708236e-18 0.36749612
0.35567647 -0.05 0.055154874 -5.9469751 7.3671464e-17 0.36361514
0.34941086 -0.05 0.055539524 -6.10217 -9.6791865e-17 0.35879067
0.34314436 -0.05 0.055909432 -6.2586352 5.6195272e-17 0.35294968
0.33687699 -0.05 0.056264267 -6.4165266 -8.2413352e-17 0.34608778
0.33060876 -0.05 0.056603638 -6.5761321 7.2284434e-17 0.33805253
0.32433969 -0.05 0.056927119 -6.7371507 1.9692433e-19 0.32889819
0.31806981 -0.05 0.057234321 -6.9011327 -2.7058691e-16 0.318653
0.31179913 -0.05 0.057524825 -7.0678522 3.2815839e-17 0.3075542
0.30552767 -0.05 0.057798197 -7.1678445 -2.8869995e-16 0.29212298
