# yPlus  FACE_DATA 448
# x y z  yPlus
0.29468942 -0.05 -0.061866669 22.944125
0.28905738 -0.05 -0.061624699 22.567744
0.28350705 -0.05 -0.061371657 22.416834
0.27803731 -0.05 -0.061107707 22.257539
0.27264702 -0.05 -0.060833074 22.107512
0.26733508 -0.05 -0.060548008 21.96301
0.26210038 -0.05 -0.06025274 21.824759
0.25694185 -0.05 -0.059947472 21.692148
0.25185846 -0.05 -0.059632451 21.565301
0.24684911 -0.05 -0.05930788 21.444317
0.24191281 -0.05 -0.058973904 21.328139
0.23704855 -0.05 -0.058630758 21.217041
0.2322553 -0.05 -0.058278647 21.110593
0.22753208 -0.05 -0.057917793 21.008221
0.22287791 -0.05 -0.057548401 20.910449
0.21829186 -0.05 -0.057170606 20.817251
0.21377297 -0.05 -0.056784634 20.728902
0.2093203 -0.05 -0.05639067 20.645948
0.20493294 -0.05 -0.055988812 20.566732
0.20061 -0.05 -0.055579288 20.491773
0.19635058 -0.05 -0.055162276 20.420981
0.19215378 -0.05 -0.054737974 20.354061
0.18801877 -0.05 -0.05430655 20.291546
0.18394468 -0.05 -0.053868054 20.232129
0.17993067 -0.05 -0.053422706 20.176067
0.17597593 -0.05 -0.052970667 20.124175
0.17207962 -0.05 -0.05251206 20.075324
0.16824096 -0.05 -0.052047066 20.03099
0.16445914 -0.05 -0.051575811 19.99028
0.1607334 -0.05 -0.051098405 19.953229
0.15706296 -0.05 -0.050614948 19.918437
0.15344707 -0.05 -0.050125633 19.886838
0.149885 -0.05 -0.049630544 19.858401
0.146376 -0.05 -0.049129797 19.832047
0.14291936 -0.05 -0.04862351 19.808835
0.13951437 -0.05 -0.048111749 19.787898
0.13616032 -0.05 -0.047594644 19.769632
0.13285654 -0.05 -0.047072285 19.753705
0.12960234 -0.05 -0.046544813 19.739632
0.12639705 -0.05 -0.046012311 19.72834
0.12324004 -0.05 -0.045474779 19.718074
0.12013065 -0.05 -0.044932375 19.709999
0.11706824 -0.05 -0.044385192 19.705851
0.11405219 -0.05 -0.043833223 19.704396
0.11108192 -0.05 -0.043276517 19.705085
0.10815681 -0.05 -0.042715179 19.706844
0.10527627 -0.05 -0.04214922 19.709047
0.10243972 -0.05 -0.041578706 19.709823
0.099646563 -0.05 -0.04100377 19.712115
0.096896277 -0.05 -0.040424332 19.715114
0.094188313 -0.05 -0.039840421 19.718571
0.091522116 -0.05 -0.039252158 19.726066
0.088897183 -0.05 -0.038659438 19.735571
0.086312994 -0.05 -0.038062302 19.743761
0.083769034 -0.05 -0.037460794 19.7541
0.081264811 -0.05 -0.03685492 19.76389
0.078799834 -0.05 -0.0362447 19.776066
0.076373661 -0.05 -0.03563001 19.787942
0.073985834 -0.05 -0.03501082 19.799535
0.071635884 -0.05 -0.034387183 19.810707
0.069323367 -0.05 -0.033759098 19.821674
0.067047882 -0.05 -0.033126432 19.830328
0.06480902 -0.05 -0.032489127 19.836103
0.062606371 -0.05 -0.031847162 19.842504
0.060439564 -0.05 -0.031200426 19.85027
0.058308232 -0.05 -0.030548817 19.858937
0.056212015 -0.05 -0.029892257 19.868357
0.054150579 -0.05 -0.02923063 19.877354
0.052123573 -0.05 -0.028563883 19.885867
0.050130718 -0.05 -0.027891814 19.895348
0.04817173 -0.05 -0.027214258 19.898328
0.046246308 -0.05 -0.026531136 19.900331
0.044354207 -0.05 -0.025842253 19.900949
0.0424952 -0.05 -0.025147411 19.903181
0.04066911 -0.05 -0.024446325 19.899124
0.038875743 -0.05 -0.023738794 19.883292
0.037114912 -0.05 -0.023024658 19.861363
0.035386495 -0.05 -0.022303623 19.838288
0.033690404 -0.05 -0.02157538 19.820305
0.032026582 -0.05 -0.020839609 19.818348
0.030394989 -0.05 -0.020095995 19.824386
0.028795635 -0.05 -0.019344182 19.822398
0.027228597 -0.05 -0.018583743 19.798144
0.025693963 -0.05 -0.0178143 19.748004
0.024191904 -0.05 -0.017035375 19.664799
0.022722652 -0.05 -0.016246461 19.549729
0.021286493 -0.05 -0.015447061 19.435934
0.019883838 -0.05 -0.014636567 19.343526
0.018515121 -0.05 -0.013814426 19.26015
0.017180948 -0.05 -0.012979939 19.208026
0.015882014 -0.05 -0.01213238 19.192715
0.014619105 -0.05 -0.011271041 19.230401
0.013393204 -0.05 -0.010395117 19.332522
0.012205472 -0.05 -0.009503801 19.531993
0.01105727 -0.05 -0.0085962591 19.802581
0.009950191 -0.05 -0.0076715643 20.064997
0.0088860262 -0.05 -0.0067287406 20.239882
0.0078668752 -0.05 -0.0057670217 20.293171
0.0068952612 -0.05 -0.004785676 20.208814
0.0059739595 -0.05 -0.0037837327 19.972039
0.0051060561 -0.05 -0.002760593 19.545599
0.004295287 -0.05 -0.0017162477 18.937279
0.0035455351 -0.05 -0.00065048159 18.091617
0.0028608767 -0.05 0.00043635929 16.966051
0.0022459924 -0.05 0.0015427614 15.516201
0.0017053919 -0.05 0.0026670645 13.656614
0.0012433094 -0.05 0.0038065941 11.187638
0.00086350259 -0.05 0.0049571555 8.2690138
0.00056886836 -0.05 0.0061142259 4.9235322
0.00036094045 -0.05 0.0072724329 4.352132
0.00023955402 -0.05 0.0084257202 8.1809128
0.00020296523 -0.05 0.0095680889 11.326607
0.99626134 -0.05 -0.030730727 33.709036
0.99001698 -0.05 -0.031373949 43.782313
0.98377188 -0.05 -0.032010148 43.902409
0.97752608 -0.05 -0.032639351 43.725854
0.97127959 -0.05 -0.033261668 43.624449
0.96503244 -0.05 -0.033877256 43.489708
0.95878462 -0.05 -0.034486098 43.349669
0.95253616 -0.05 -0.03508826 43.197413
0.94628707 -0.05 -0.035683896 43.037524
0.94003737 -0.05 -0.036273091 42.872996
0.93378707 -0.05 -0.036855851 42.706368
0.92753618 -0.05 -0.037432238 42.538679
0.9212847 -0.05 -0.038002327 42.370152
0.91503267 -0.05 -0.038566154 42.199535
0.90878008 -0.05 -0.039123872 42.025045
0.90252695 -0.05 -0.039675477 41.843985
0.89627329 -0.05 -0.040221002 41.655413
0.89001911 -0.05 -0.040760585 41.462045
0.88376443 -0.05 -0.041294238 41.268015
0.87750923 -0.05 -0.041821904 41.075719
0.87125354 -0.05 -0.042343723 40.886407
0.86499738 -0.05 -0.042859763 40.699586
0.85874074 -0.05 -0.043369995 40.512208
0.85248363 -0.05 -0.043874506 40.320798
0.84622608 -0.05 -0.04437336 40.12199
0.83996807 -0.05 -0.044866544 39.916048
0.83370962 -0.05 -0.045354019 39.708296
0.82745072 -0.05 -0.045835964 39.506013
0.82119141 -0.05 -0.046312338 39.310849
0.81493168 -0.05 -0.046783095 39.120055
0.80867153 -0.05 -0.047248314 38.929726
0.80241098 -0.05 -0.047708005 38.732278
0.79615002 -0.05 -0.048162202 38.521042
0.78988866 -0.05 -0.048610858 38.298534
0.78362691 -0.05 -0.049054061 38.076603
0.77736479 -0.05 -0.049491775 37.861958
0.77110227 -0.05 -0.049923969 37.653993
0.76483938 -0.05 -0.050350704 37.44602
0.75857611 -0.05 -0.050771966 37.221693
0.75231249 -0.05 -0.051187745 36.969774
0.7460485 -0.05 -0.051598015 36.707901
0.73978415 -0.05 -0.052002758 36.446086
0.73351945 -0.05 -0.052401962 36.183829
0.72725439 -0.05 -0.052795589 35.919801
0.72098899 -0.05 -0.053183675 35.654176
0.71472325 -0.05 -0.053566248 35.388166
0.70845716 -0.05 -0.053943135 35.121219
0.70219074 -0.05 -0.054314386 34.854557
0.69592398 -0.05 -0.054679967 34.589474
0.68965688 -0.05 -0.055039784 34.32584
0.68338947 -0.05 -0.055393895 34.062321
0.67712173 -0.05 -0.055742201 33.798045
0.67085367 -0.05 -0.056084714 33.53338
0.66458529 -0.05 -0.056421316 33.267429
0.65831659 -0.05 -0.056751906 32.998872
0.65204758 -0.05 -0.057076571 32.727403
0.64577826 -0.05 -0.057395224 32.451348
0.63950863 -0.05 -0.057707698 32.173022
0.63323869 -0.05 -0.058013961 31.896016
0.62696846 -0.05 -0.058314015 31.621064
0.62069792 -0.05 -0.058607723 31.348261
0.61442709 -0.05 -0.058895 31.077204
0.60815597 -0.05 -0.059175843 30.809547
0.60188455 -0.05 -0.059450108 30.546651
0.59561285 -0.05 -0.059717722 30.290806
0.58934086 -0.05 -0.059978601 30.045345
0.58306859 -0.05 -0.060232655 29.811965
0.57679604 -0.05 -0.060479769 29.587817
0.57052322 -0.05 -0.060719797 29.368671
0.56425013 -0.05 -0.060952708 29.153636
0.55797678 -0.05 -0.061178378 28.942112
0.55170316 -0.05 -0.061396646 28.733752
0.54542929 -0.05 -0.061607441 28.528689
0.53915517 -0.05 -0.061810601 28.326704
0.53288081 -0.05 -0.062005986 28.127504
0.5266062 -0.05 -0.062193525 27.93164
0.52033136 -0.05 -0.062373048 27.738747
0.51405628 -0.05 -0.06254441 27.548918
0.50778099 -0.05 -0.062707446 27.361894
0.50150548 -0.05 -0.062862016 27.177777
0.49522978 -0.05 -0.063007999 26.996843
0.48895386 -0.05 -0.063145197 26.818834
0.48267775 -0.05 -0.063273406 26.643368
0.47640148 -0.05 -0.063392503 26.470795
0.47012503 -0.05 -0.063502348 26.301564
0.46384842 -0.05 -0.063602693 26.135212
0.45757166 -0.05 -0.063693322 25.971404
0.45129478 -0.05 -0.063774075 25.8105
0.44501776 -0.05 -0.063844768 25.652481
0.43874064 -0.05 -0.063905174 25.497351
0.43246343 -0.05 -0.063955055 25.344747
0.42618614 -0.05 -0.063994201 25.194771
0.4199088 -0.05 -0.064022412 25.047689
0.41363141 -0.05 -0.064039441 24.903556
0.40735401 -0.05 -0.06404501 24.761805
0.4010766 -0.05 -0.064038895 24.623135
0.39479922 -0.05 -0.064020811 24.48731
0.38852188 -0.05 -0.06399045 24.354018
0.38224462 -0.05 -0.063947598 24.223406
0.37596746 -0.05 -0.063892015 24.096493
0.36969043 -0.05 -0.063823303 23.972076
0.36341355 -0.05 -0.063741143 23.850042
0.35713688 -0.05 -0.063645294 23.731008
0.35086043 -0.05 -0.063535421 23.615026
0.34458426 -0.05 -0.063411169 23.501977
0.33830839 -0.05 -0.063272151 23.392026
0.33203287 -0.05 -0.06311804 23.285886
0.32575776 -0.05 -0.062948446 23.184314
0.3194831 -0.05 -0.062762947 23.086481
0.31320893 -0.05 -0.062561153 22.992857
0.30693532 -0.05 -0.062342654 22.913576
0.30066235 -0.05 -0.062107018 23.058624
0.29955491 -0.05 0.058042563 23.107753
0.29392178 -0.05 0.058257694 23.458787
0.2883692 -0.05 0.058455169 23.582552
0.28289606 -0.05 0.058635244 23.706969
0.27750125 -0.05 0.058798232 23.826839
0.27218367 -0.05 0.058944475 23.944778
0.26694226 -0.05 0.059074291 24.059857
0.26177596 -0.05 0.059187969 24.172619
0.25668374 -0.05 0.059285839 24.283192
0.25166458 -0.05 0.059368189 24.392398
0.24671745 -0.05 0.059435247 24.498574
0.24184136 -0.05 0.059487332 24.602256
0.23703535 -0.05 0.059524725 24.703438
0.23229842 -0.05 0.059547731 24.802091
0.22762963 -0.05 0.059556633 24.89844
0.22302804 -0.05 0.05955164 24.993205
0.21849273 -0.05 0.059533056 25.086558
0.21402278 -0.05 0.059501141 25.179268
0.2096173 -0.05 0.059456066 25.269935
0.20527538 -0.05 0.059398131 25.359336
0.20099617 -0.05 0.059327588 25.447827
0.1967788 -0.05 0.059244702 25.535535
0.19262243 -0.05 0.059149713 25.622774
0.1885262 -0.05 0.059042741 25.707919
0.1844893 -0.05 0.05892407 25.791174
0.18051094 -0.05 0.058793928 25.873443
0.17659029 -0.05 0.058652507 25.953634
0.17272657 -0.05 0.058500048 26.032978
0.16891901 -0.05 0.058336745 26.11061
0.16516683 -0.05 0.058162767 26.187158
0.1614693 -0.05 0.057978275 26.261915
0.15782566 -0.05 0.057783526 26.335981
0.15423518 -0.05 0.057578664 26.409617
0.15069714 -0.05 0.05736386 26.481944
0.14721085 -0.05 0.057139294 26.55387
0.14377558 -0.05 0.056905087 26.624084
0.14039066 -0.05 0.056661426 26.692921
0.13705542 -0.05 0.056408455 26.760793
0.13376918 -0.05 0.056146371 26.827178
0.13053129 -0.05 0.05587531 26.893021
0.12734111 -0.05 0.055595326 26.956526
0.124198 -0.05 0.055306626 27.018307
0.12110132 -0.05 0.055009359 27.079394
0.11805047 -0.05 0.054703562 27.138528
0.11504486 -0.05 0.054389336 27.195717
0.11208388 -0.05 0.054066836 27.251027
0.10916695 -0.05 0.053736117 27.30496
0.10629351 -0.05 0.053397295 27.355601
0.10346296 -0.05 0.05305055 27.405536
0.10067477 -0.05 0.052695843 27.453526
0.097928399 -0.05 0.05233325 27.497566
0.095223305 -0.05 0.051962935 27.539987
0.09255898 -0.05 0.051584834 27.579589
0.089934907 -0.05 0.051199032 27.613679
0.087350578 -0.05 0.050805612 27.646051
0.084805499 -0.05 0.050404621 27.674058
0.082299186 -0.05 0.049996119 27.701076
0.079831186 -0.05 0.049580017 27.724577
0.077401042 -0.05 0.049156324 27.744875
0.075008291 -0.05 0.048725129 27.762996
0.07265249 -0.05 0.048286468 27.781016
0.070333227 -0.05 0.047840241 27.798481
0.068050091 -0.05 0.047386424 27.81489
0.065802672 -0.05 0.046925026 27.833158
0.063590589 -0.05 0.04645597 27.850802
0.06141347 -0.05 0.045979184 27.867007
0.059270951 -0.05 0.045494618 27.881422
0.057162686 -0.05 0.045002181 27.893793
0.055088326 -0.05 0.044501852 27.902798
0.053047572 -0.05 0.043993453 27.913558
0.051040127 -0.05 0.043476841 27.922281
0.049065689 -0.05 0.042951962 27.93844
0.047123995 -0.05 0.042418641 27.961975
0.045214805 -0.05 0.0418767 27.995418
0.043337916 -0.05 0.041325869 28.039697
0.041493121 -0.05 0.040765962 28.09166
0.039680219 -0.05 0.040196834 28.150537
0.037899066 -0.05 0.039618206 28.216487
0.03614955 -0.05 0.039029774 28.284678
0.034431585 -0.05 0.038431224 28.355207
0.032745109 -0.05 0.037822245 28.423098
0.031090102 -0.05 0.037202483 28.489165
0.029466605 -0.05 0.036571505 28.548609
0.027874675 -0.05 0.035928926 28.600861
0.026314445 -0.05 0.035274258 28.647678
0.024786107 -0.05 0.034606976 28.689528
0.023289903 -0.05 0.033926562 28.731929
0.021826193 -0.05 0.033232374 28.779061
0.020395365 -0.05 0.032523829 28.832732
0.018997969 -0.05 0.03180018 28.908227
0.017634636 -0.05 0.031060647 29.001333
0.016306093 -0.05 0.030304458 29.125118
0.015013256 -0.05 0.029530737 29.269421
0.013757215 -0.05 0.028738581 29.430192
0.012539259 -0.05 0.027927049 29.591988
0.0113609 -0.05 0.02709509 29.750432
0.010223847 -0.05 0.026241583 29.887423
0.0091301283 -0.05 0.025365597 29.999196
0.0080822001 -0.05 0.024466198 30.068656
0.0070827501 -0.05 0.023542192 30.068903
0.0061348055 -0.05 0.022592733 29.969071
0.0052420895 -0.05 0.021617509 29.769795
0.0044084543 -0.05 0.020615991 29.434945
0.0036379913 -0.05 0.019588194 28.915941
0.0029354882 -0.05 0.018535247 28.18318
0.0023055743 -0.05 0.017458439 27.194425
0.0017526867 -0.05 0.016360094 25.904128
0.0012809104 -0.05 0.015244087 24.291247
0.00089349931 -0.05 0.014114692 22.350647
0.00059241748 -0.05 0.012977138 20.092025
0.00037799121 -0.05 0.011837477 17.502473
0.00024896841 -0.05 0.010701828 14.585994
0.9962978 -0.05 -0.029832114 3.9503852
0.99012608 -0.05 -0.02868509 1.3437862
0.98395306 -0.05 -0.027545008 1.2517398
0.97777877 -0.05 -0.02641184 0.83746383
0.97160324 -0.05 -0.025285482 1.0578852
0.96542649 -0.05 -0.024165775 0.95629912
0.95924855 -0.05 -0.023052738 1.0136917
0.95306942 -0.05 -0.021946309 0.99756388
0.94688913 -0.05 -0.020846333 1.0187267
0.94070771 -0.05 -0.019752726 1.0279928
0.93452517 -0.05 -0.018665483 1.0419767
0.92834153 -0.05 -0.017584547 1.0520278
0.92215679 -0.05 -0.016509841 1.0716454
0.91597098 -0.05 -0.015441329 1.1573466
0.90978414 -0.05 -0.014378862 1.1974802
0.90359626 -0.05 -0.013322444 1.1905458
0.89740736 -0.05 -0.012272044 1.1514153
0.89121746 -0.05 -0.011227524 1.0950954
0.88502657 -0.05 -0.010188873 1.0378781
0.87883469 -0.05 -0.009156148 0.98694817
0.87264185 -0.05 -0.0081292114 0.89892954
0.86644806 -0.05 -0.007107996 0.76800525
0.86025333 -0.05 -0.0060925305 0.56681934
0.85405767 -0.05 -0.0050827293 0.21187893
0.8478611 -0.05 -0.0040785301 0.62346747
0.84166362 -0.05 -0.003079947 0.87332481
0.83546524 -0.05 -0.002087016 1.066458
0.82926597 -0.05 -0.001099563 1.2478583
0.82306583 -0.05 -0.00011762805 1.423576
0.81686482 -0.05 0.00085874232 1.5960718
0.81066295 -0.05 0.0018296272 1.7683665
0.80446021 -0.05 0.0027950359 1.9409297
0.79825664 -0.05 0.0037549996 2.1167874
0.79205222 -0.05 0.0047094733 2.2971559
0.78584696 -0.05 0.0056585429 2.4843926
0.77964089 -0.05 0.0066021733 2.67734
0.77343397 -0.05 0.0075403329 2.8742774
0.76722625 -0.05 0.0084730822 3.0750346
0.76101771 -0.05 0.009400407 3.2781998
0.75480836 -0.05 0.010322297 3.4850565
0.7485982 -0.05 0.011238724 3.7025737
0.74238724 -0.05 0.012149671 3.9254745
0.73617546 -0.05 0.013055127 4.1518683
0.7299629 -0.05 0.013955052 4.3804783
0.72374954 -0.05 0.014849483 4.6111149
0.71753539 -0.05 0.015738446 4.8448688
0.71132043 -0.05 0.01662177 5.0807606
0.70510469 -0.05 0.017499503 5.319503
0.69888816 -0.05 0.018371613 5.5615364
0.69267082 -0.05 0.019238004 5.8050068
0.6864527 -0.05 0.020098735 6.0518736
0.68023379 -0.05 0.020953707 6.3011286
0.67401408 -0.05 0.021802929 6.5539581
0.66779357 -0.05 0.022646286 6.8096421
0.66157227 -0.05 0.023483678 7.0668099
0.65535018 -0.05 0.024315188 7.3269192
0.64912729 -0.05 0.025140731 7.5900457
0.64290358 -0.05 0.025960141 7.8551952
0.63667907 -0.05 0.026773385 8.1224536
0.63045376 -0.05 0.027580465 8.3918681
0.62422763 -0.05 0.028381244 8.6628098
0.61800069 -0.05 0.029175637 8.9356464
0.61177293 -0.05 0.029963641 9.2110248
0.60554436 -0.05 0.030745111 9.4874109
0.59931495 -0.05 0.031519976 9.7644496
0.59308472 -0.05 0.032288153 10.046571
0.58685365 -0.05 0.033049549 10.347454
0.58062175 -0.05 0.03380405 10.661188
0.574389 -0.05 0.034551511 10.975627
0.5681554 -0.05 0.035291898 11.289097
0.56192096 -0.05 0.036025091 11.600461
0.55568565 -0.05 0.036750928 11.909076
0.54944949 -0.05 0.037469337 12.216071
0.54321245 -0.05 0.038180156 12.52187
0.53697453 -0.05 0.038883245 12.825571
0.53073575 -0.05 0.039578534 13.127784
0.52449608 -0.05 0.040265851 13.427585
0.51825552 -0.05 0.040945055 13.725205
0.51201407 -0.05 0.041615977 14.021181
0.50577171 -0.05 0.042278478 14.31599
0.49952847 -0.05 0.042932437 14.610098
0.4932843 -0.05 0.043577655 14.902287
0.48703922 -0.05 0.04421393 15.191806
0.48079322 -0.05 0.044841137 15.479429
0.47454631 -0.05 0.045459137 15.766877
0.46829846 -0.05 0.046067681 16.053728
0.46204968 -0.05 0.046666552 16.339085
0.45579997 -0.05 0.047255591 16.622689
0.44954932 -0.05 0.047834613 16.904557
0.44329773 -0.05 0.04840339 17.185285
0.4370452 -0.05 0.048961684 17.465363
0.43079172 -0.05 0.049509285 17.744986
0.42453729 -0.05 0.050045992 18.0241
0.41828192 -0.05 0.050571556 18.302137
0.4120256 -0.05 0.0510857 18.578452
0.40576835 -0.05 0.051588198 18.85385
0.39951013 -0.05 0.052078765 19.128917
0.39325097 -0.05 0.052557091 19.403374
0.38699088 -0.05 0.053022961 19.677613
0.38072985 -0.05 0.053476134 19.951681
0.37446788 -0.05 0.05391621 20.224414
0.36820499 -0.05 0.05434287 20.495545
0.36194118 -0.05 0.05475587 20.766898
0.35567647 -0.05 0.055154874 21.038767
0.34941086 -0.05 0.055539524 21.310252
0.34314436 -0.05 0.055909432 21.580531
0.33687699 -0.05 0.056264267 21.849638
0.33060876 -0.05 0.056603638 22.118393
0.32433969 -0.05 0.056927119 22.385967
0.31806981 -0.05 0.057234321 22.655282
0.31179913 -0.05 0.057524825 22.927744
0.30552767 -0.05 0.057798197 22.966449
