# p  FACE_DATA 448
# x y z  p
0.29662448 -0.05 -0.060421745 99588.696
0.2909876 -0.05 -0.060358091 99583.87
0.28543205 -0.05 -0.060280785 99579.437
0.27995669 -0.05 -0.060190028 99575.086
0.27456041 -0.05 -0.060086078 99570.853
0.26924211 -0.05 -0.059969222 99566.887
0.26400069 -0.05 -0.059839724 99563.041
0.25883509 -0.05 -0.059697823 99559.404
0.25374427 -0.05 -0.059543795 99555.704
0.24872717 -0.05 -0.05937788 99552.192
0.24378278 -0.05 -0.059200252 99548.862
0.23891008 -0.05 -0.059011181 99545.784
0.23410809 -0.05 -0.058810902 99542.878
0.22937581 -0.05 -0.058599669 99540.002
0.2247123 -0.05 -0.058377718 99537.161
0.22011659 -0.05 -0.058145213 99534.554
0.21558774 -0.05 -0.057902409 99531.988
0.21112484 -0.05 -0.057649524 99529.66
0.20672697 -0.05 -0.05738668 99527.533
0.20239323 -0.05 -0.057114137 99525.49
0.19812274 -0.05 -0.0568321 99523.64
0.19391463 -0.05 -0.056540794 99521.893
0.18976803 -0.05 -0.056240415 99520.362
0.1856821 -0.05 -0.055931042 99519.025
0.18165601 -0.05 -0.055612918 99517.553
0.17768895 -0.05 -0.05528623 99516.244
0.17378009 -0.05 -0.054951131 99515.057
0.16992863 -0.05 -0.054607822 99514.135
0.1661338 -0.05 -0.054256459 99513.256
0.16239482 -0.05 -0.053897172 99512.62
0.15871093 -0.05 -0.053530088 99512.161
0.15508137 -0.05 -0.053155422 99511.88
0.15150541 -0.05 -0.052773284 99511.948
0.14798232 -0.05 -0.05238381 99512.148
0.14451139 -0.05 -0.051987142 99512.588
0.1410919 -0.05 -0.05158337 99513.215
0.13772318 -0.05 -0.051172645 99514.001
0.13440453 -0.05 -0.050755077 99515.035
0.13113527 -0.05 -0.050330831 99516.08
0.12791474 -0.05 -0.049900009 99517.409
0.1247423 -0.05 -0.049462632 99518.99
0.12161731 -0.05 -0.049018879 99520.619
0.11853911 -0.05 -0.048568863 99522.483
0.11550712 -0.05 -0.048112596 99524.611
0.11252072 -0.05 -0.047650147 99526.962
0.10957931 -0.05 -0.04718164 99529.454
0.1066823 -0.05 -0.046707103 99532.377
0.10382912 -0.05 -0.046226621 99535.338
0.10101918 -0.05 -0.045740348 99538.439
0.098251934 -0.05 -0.045248216 99542.026
0.095526852 -0.05 -0.044750277 99545.696
0.092843376 -0.05 -0.044246666 99549.548
0.090201005 -0.05 -0.043737293 99553.984
0.087599216 -0.05 -0.043222219 99558.444
0.085037499 -0.05 -0.042701502 99563.276
0.08251536 -0.05 -0.042175164 99568.134
0.08003231 -0.05 -0.04164324 99573.481
0.077587902 -0.05 -0.041105619 99579.288
0.07518168 -0.05 -0.040562289 99585.507
0.072813176 -0.05 -0.040013316 99591.876
0.070481944 -0.05 -0.039458712 99598.562
0.068187581 -0.05 -0.038898358 99605.804
0.065929676 -0.05 -0.03833221 99613.367
0.063707819 -0.05 -0.037760256 99621.316
0.061521633 -0.05 -0.0371824 99629.731
0.059370752 -0.05 -0.036598552 99638.675
0.057254812 -0.05 -0.036008645 99648.156
0.055173473 -0.05 -0.035412571 99658.195
0.053126388 -0.05 -0.03481029 99668.555
0.051113267 -0.05 -0.034201611 99679.857
0.049133821 -0.05 -0.033586375 99691.666
0.047187749 -0.05 -0.032964515 99704.135
0.0452748 -0.05 -0.032335842 99717.213
0.04339474 -0.05 -0.031700166 99731.13
0.041547382 -0.05 -0.031057209 99746.095
0.039732527 -0.05 -0.030406772 99761.925
0.037949982 -0.05 -0.029748705 99778.551
0.036199616 -0.05 -0.029082718 99796.315
0.034481334 -0.05 -0.028408503 99815.221
0.032795065 -0.05 -0.027725743 99835.516
0.031140761 -0.05 -0.027034123 99857.013
0.029518422 -0.05 -0.02633329 99879.84
0.027928109 -0.05 -0.025622812 99904.412
0.026369898 -0.05 -0.02490231 99930.611
0.024843946 -0.05 -0.024171299 99958.787
0.023350469 -0.05 -0.023429266 99988.981
0.021889737 -0.05 -0.022675706 100021.41
0.02046214 -0.05 -0.021909997 100056.37
0.019068095 -0.05 -0.021131573 100093.76
0.017708187 -0.05 -0.020339716 100134.48
0.016383088 -0.05 -0.019533679 100178.29
0.01509356 -0.05 -0.018712728 100225.62
0.013840558 -0.05 -0.01787603 100276.53
0.01262522 -0.05 -0.01702274 100332.1
0.011448879 -0.05 -0.016151981 100392.68
0.010313097 -0.05 -0.015262777 100458.31
0.0092196347 -0.05 -0.014354094 100528.39
0.0081705658 -0.05 -0.013425103 100604.3
0.0071683889 -0.05 -0.01247499 100685.54
0.0062158475 -0.05 -0.011502697 100772.59
0.0053160069 -0.05 -0.01050753 100865.1
0.0044726013 -0.05 -0.0094893598 100962.17
0.0036895043 -0.05 -0.0084478489 101062.46
0.0029708017 -0.05 -0.0073832144 101163.8
0.0023212193 -0.05 -0.0062968209 101263.78
0.001745317 -0.05 -0.005190185 101358.11
0.0012474118 -0.05 -0.004065846 101441.16
0.00083139188 -0.05 -0.0029278774 101509.93
0.00050029606 -0.05 -0.0017807084 101560.68
0.00025582717 -0.05 -0.00062965999 101586.87
9.8012098e-05 -0.05 0.00051920926 101587.39
2.5297657e-05 -0.05 0.0016598483 101561.7
0.99686003 -0.05 -0.007104015 99992.997
0.99063913 -0.05 -0.0079444833 100021.28
0.98441729 -0.05 -0.0087779554 100002.75
0.97819453 -0.05 -0.0096044586 100010.48
0.97197086 -0.05 -0.010424099 100005.11
0.96574631 -0.05 -0.011237035 100005.47
0.95952088 -0.05 -0.01204325 100003.03
0.9532946 -0.05 -0.012842808 100001.7
0.9470675 -0.05 -0.013635864 99999.74
0.94083956 -0.05 -0.014422502 99997.978
0.93461083 -0.05 -0.015202727 99996.006
0.92838131 -0.05 -0.015976599 99994.062
0.922151 -0.05 -0.016744196 99992.004
0.91591992 -0.05 -0.017505553 99989.95
0.90968812 -0.05 -0.01826082 99987.796
0.90345557 -0.05 -0.019009995 99985.641
0.8972223 -0.05 -0.01975311 99983.397
0.89098833 -0.05 -0.020490301 99981.145
0.88475366 -0.05 -0.021221581 99978.81
0.87851829 -0.05 -0.021946895 99976.467
0.87228224 -0.05 -0.022666379 99974.047
0.86604554 -0.05 -0.023380102 99971.63
0.85980817 -0.05 -0.024088036 99969.142
0.85357016 -0.05 -0.024790267 99966.645
0.84733152 -0.05 -0.025486857 99964.08
0.84109225 -0.05 -0.026177793 99961.506
0.83485236 -0.05 -0.026863039 99958.877
0.82861185 -0.05 -0.02754277 99956.222
0.82237075 -0.05 -0.028216948 99953.524
0.81612904 -0.05 -0.028885524 99950.817
0.80988675 -0.05 -0.029548578 99948.053
0.80364387 -0.05 -0.03020612 99945.271
0.79740042 -0.05 -0.030858183 99942.439
0.79115639 -0.05 -0.03150472 99939.594
0.7849118 -0.05 -0.032145819 99936.7
0.77866665 -0.05 -0.032781444 99933.799
0.77242095 -0.05 -0.033411565 99930.853
0.7661747 -0.05 -0.034036241 99927.898
0.75992789 -0.05 -0.034655458 99924.893
0.75368056 -0.05 -0.035269208 99921.865
0.74743269 -0.05 -0.035877461 99918.795
0.74118428 -0.05 -0.036480203 99915.706
0.73493534 -0.05 -0.037077419 99912.578
0.72868587 -0.05 -0.037669073 99909.423
0.72243589 -0.05 -0.038255198 99906.222
0.71618539 -0.05 -0.038835825 99902.996
0.70993436 -0.05 -0.039410779 99899.74
0.70368282 -0.05 -0.039980109 99896.43
0.69743077 -0.05 -0.040543784 99893.107
0.6911782 -0.05 -0.041101709 99889.732
0.68492513 -0.05 -0.041653942 99886.323
0.67867154 -0.05 -0.042200382 99882.873
0.67241746 -0.05 -0.042741041 99879.372
0.66616287 -0.05 -0.043275802 99875.856
0.65990777 -0.05 -0.043804566 99872.291
0.65365217 -0.05 -0.044327417 99868.67
0.64739607 -0.05 -0.044844267 99865.003
0.64113946 -0.05 -0.045354952 99861.295
0.63488235 -0.05 -0.04585944 99857.541
0.62862475 -0.05 -0.04635773 99853.735
0.62236665 -0.05 -0.046849689 99849.898
0.61610805 -0.05 -0.047335227 99845.978
0.60984894 -0.05 -0.047814344 99842.006
0.60358934 -0.05 -0.048286897 99838.005
0.59732925 -0.05 -0.04875281 99833.955
0.59106865 -0.05 -0.049212001 99829.867
0.58480756 -0.05 -0.04966438 99825.692
0.57854598 -0.05 -0.050109831 99821.467
0.5722839 -0.05 -0.050548208 99817.191
0.56602132 -0.05 -0.050979479 99812.857
0.55975824 -0.05 -0.051403522 99808.473
0.55349468 -0.05 -0.051820174 99804.02
0.54723062 -0.05 -0.052229366 99799.476
0.54096606 -0.05 -0.052630934 99794.909
0.53470102 -0.05 -0.053024739 99790.274
0.52843548 -0.05 -0.05341071 99785.578
0.52216946 -0.05 -0.053788675 99780.806
0.51590296 -0.05 -0.054158492 99775.945
0.50963596 -0.05 -0.054519993 99771.063
0.50336848 -0.05 -0.05487304 99766.107
0.49710053 -0.05 -0.05521751 99761.079
0.4908321 -0.05 -0.055553205 99755.934
0.4845632 -0.05 -0.055879923 99750.762
0.47829384 -0.05 -0.056197538 99745.61
0.472024 -0.05 -0.056505912 99740.51
0.46575371 -0.05 -0.056804796 99735.347
0.45948296 -0.05 -0.057093973 99730.1
0.45321178 -0.05 -0.057373283 99724.797
0.44694014 -0.05 -0.057642542 99719.461
0.44066808 -0.05 -0.057901523 99714.06
0.43439559 -0.05 -0.058149987 99708.599
0.42812268 -0.05 -0.058387723 99703.113
0.42184936 -0.05 -0.058614532 99697.62
0.41557566 -0.05 -0.058830166 99692.106
0.40930157 -0.05 -0.059034346 99686.547
0.40302712 -0.05 -0.059226847 99680.926
0.3967523 -0.05 -0.059407386 99675.372
0.39047716 -0.05 -0.059575652 99669.834
0.38420168 -0.05 -0.05973143 99664.223
0.37792591 -0.05 -0.059874481 99658.555
0.37164984 -0.05 -0.060004406 99653.013
0.36537351 -0.05 -0.060120884 99647.46
0.35909694 -0.05 -0.060223674 99641.89
0.35282017 -0.05 -0.060312439 99636.296
0.3465432 -0.05 -0.060386824 99630.787
0.34026608 -0.05 -0.060446442 99625.355
0.33398882 -0.05 -0.060490961 99619.826
0.32771149 -0.05 -0.060519994 99614.361
0.3214341 -0.05 -0.060533115 99609.023
0.31515669 -0.05 -0.060529934 99603.8
0.30887931 -0.05 -0.060510038 99598.429
0.30260201 -0.05 -0.060472992 99592.716
0.29769367 -0.05 0.059581396 99372.002
0.29205655 -0.05 0.05961819 99365.454
0.28650051 -0.05 0.059639885 99359.091
0.28102441 -0.05 0.059646703 99352.827
0.27562713 -0.05 0.05963892 99346.647
0.27030759 -0.05 0.059616845 99340.584
0.26506469 -0.05 0.05958076 99334.617
0.25989738 -0.05 0.059530922 99328.802
0.25480463 -0.05 0.059467627 99322.998
0.24978537 -0.05 0.059391133 99317.367
0.24483859 -0.05 0.059301632 99311.853
0.2399633 -0.05 0.059199414 99306.459
0.2351585 -0.05 0.059084729 99301.164
0.23042323 -0.05 0.058957849 99295.923
0.22575649 -0.05 0.058819028 99290.787
0.22115737 -0.05 0.058668446 99285.802
0.21662491 -0.05 0.058506376 99280.826
0.21215821 -0.05 0.058333051 99276.015
0.20775635 -0.05 0.058148611 99271.343
0.20341844 -0.05 0.057953329 99266.747
0.19914361 -0.05 0.057747429 99262.292
0.19493098 -0.05 0.057531149 99257.846
0.19077969 -0.05 0.057304703 99253.547
0.18668889 -0.05 0.057068181 99249.423
0.18265778 -0.05 0.056821845 99245.305
0.17868553 -0.05 0.056565894 99241.373
0.17477131 -0.05 0.056300496 99237.484
0.17091435 -0.05 0.056025868 99233.73
0.16711386 -0.05 0.055742178 99230.03
0.16336907 -0.05 0.055449569 99226.513
0.15967923 -0.05 0.055148182 99223.095
0.15604356 -0.05 0.054838247 99219.751
0.15246136 -0.05 0.054519887 99216.592
0.1489319 -0.05 0.054193249 99213.47
0.14545444 -0.05 0.05385849 99210.479
0.14202831 -0.05 0.05351571 99207.59
0.13865279 -0.05 0.053165074 99204.84
0.13532723 -0.05 0.052806705 99202.242
0.13205093 -0.05 0.052440777 99199.652
0.12882324 -0.05 0.052067408 99197.252
0.12564352 -0.05 0.051686627 99195.038
0.12251111 -0.05 0.051298626 99192.841
0.11942538 -0.05 0.050903529 99190.782
0.11638575 -0.05 0.050501359 99188.87
0.11339158 -0.05 0.050092195 99187.093
0.11044228 -0.05 0.049676171 99185.383
0.10753728 -0.05 0.049253328 99183.941
0.10467599 -0.05 0.048823762 99182.532
0.10185783 -0.05 0.048387633 99181.283
0.099082258 -0.05 0.047944887 99180.34
0.096348738 -0.05 0.047495582 99179.419
0.093656714 -0.05 0.047039864 99178.562
0.091005687 -0.05 0.046577655 99178.002
0.088395134 -0.05 0.046109021 99177.484
0.085824545 -0.05 0.045634032 99177.291
0.083293428 -0.05 0.045152717 99177.154
0.080801294 -0.05 0.04466512 99177.309
0.078347696 -0.05 0.044171141 99177.742
0.075932174 -0.05 0.043670771 99178.359
0.073554263 -0.05 0.043164087 99179.013
0.07121352 -0.05 0.042651108 99179.891
0.068909538 -0.05 0.042131725 99181.157
0.066641903 -0.05 0.041605897 99182.72
0.064410207 -0.05 0.041073624 99184.571
0.062214073 -0.05 0.040534814 99186.641
0.06005313 -0.05 0.039989383 99188.884
0.057927015 -0.05 0.039437271 99191.489
0.055835385 -0.05 0.038878377 99194.597
0.053777894 -0.05 0.038312667 99198.109
0.051754246 -0.05 0.037739954 99202.33
0.049764153 -0.05 0.037160087 99206.685
0.04780731 -0.05 0.036573 99211.283
0.045883462 -0.05 0.035978511 99216.269
0.043992374 -0.05 0.035376435 99222.085
0.042133852 -0.05 0.034766496 99228.869
0.040307697 -0.05 0.034148501 99236.264
0.038513709 -0.05 0.033522299 99244.077
0.036751756 -0.05 0.032887606 99252.638
0.035021733 -0.05 0.032244114 99262.111
0.033323566 -0.05 0.031591509 99273.021
0.031657202 -0.05 0.030929475 99285.173
0.030022632 -0.05 0.03025766 99298.244
0.028419913 -0.05 0.029575631 99311.795
0.026849111 -0.05 0.028883007 99326.718
0.025310375 -0.05 0.028179302 99344.276
0.023803914 -0.05 0.027463998 99364.044
0.022329986 -0.05 0.026736585 99385.633
0.020888974 -0.05 0.025996434 99408.529
0.01948128 -0.05 0.025242973 99434.218
0.018107479 -0.05 0.024475473 99463.907
0.016768227 -0.05 0.023693175 99495.903
0.015464276 -0.05 0.022895331 99530.634
0.014196565 -0.05 0.022081092 99567.961
0.012966217 -0.05 0.021249592 99609.053
0.011774547 -0.05 0.020399931 99657.6
0.010623101 -0.05 0.019531105 99714.095
0.0095136212 -0.05 0.018642051 99779.018
0.0084481662 -0.05 0.017731899 99855.017
0.0074292192 -0.05 0.016799794 99940.922
0.0064595048 -0.05 0.015844628 100034.13
0.0055420751 -0.05 0.014865652 100134.54
0.0046806616 -0.05 0.013862672 100244.4
0.0038791313 -0.05 0.012835279 100363.55
0.003141573 -0.05 0.01178362 100494.36
0.0024727363 -0.05 0.010708973 100633.75
0.0018772074 -0.05 0.0096127742 100779.44
0.0013593477 -0.05 0.0084974853 100927.09
0.00092311747 -0.05 0.0073671102 101071.7
0.00057163386 -0.05 0.0062260226 101208.61
0.00030669436 -0.05 0.0050795129 101330.83
0.00012843374 -0.05 0.0039336381 101431.41
3.540688e-05 -0.05 0.0027944757 101509
0.99686803 -0.05 -0.0062046983 100210.01
0.99066311 -0.05 -0.0052535195 100134.67
0.98445711 -0.05 -0.0043093187 100112.76
0.97825006 -0.05 -0.0033720694 100091.17
0.97204199 -0.05 -0.0024416655 100075.63
0.9658329 -0.05 -0.0015179488 100060.96
0.95962284 -0.05 -0.00060093655 100048.3
0.95341179 -0.05 0.0003094346 100036.44
0.94719979 -0.05 0.0012133193 100025.51
0.94098687 -0.05 0.0021108017 100015.09
0.93477302 -0.05 0.0030018869 100005.45
0.92855827 -0.05 0.0038866347 99996.138
0.92234263 -0.05 0.0047651216 99987.407
0.91612612 -0.05 0.0056373825 99978.99
0.90990876 -0.05 0.0065035682 99970.819
0.90369055 -0.05 0.0073636763 99963.036
0.89747151 -0.05 0.0082177379 99955.504
0.89125167 -0.05 0.009065889 99948.077
0.88503101 -0.05 0.0099081433 99940.907
0.87880956 -0.05 0.010744444 99934.073
0.87258733 -0.05 0.011574928 99927.207
0.86636432 -0.05 0.012399663 99920.578
0.86014056 -0.05 0.013218623 99914.13
0.85391606 -0.05 0.014031891 99907.798
0.84769081 -0.05 0.014839531 99901.528
0.84146485 -0.05 0.015641529 99895.417
0.83523816 -0.05 0.016437849 99889.536
0.82901075 -0.05 0.017228666 99883.43
0.82278265 -0.05 0.01801394 99877.665
0.81655385 -0.05 0.018793625 99871.825
0.81032436 -0.05 0.0195678 99866.166
0.80409419 -0.05 0.020336474 99860.443
0.79786335 -0.05 0.021099679 99854.832
0.79163182 -0.05 0.02185737 99849.313
0.78539966 -0.05 0.022609634 99843.7
0.77916683 -0.05 0.023356434 99838.261
0.77293334 -0.05 0.024097741 99832.82
0.76669921 -0.05 0.024833614 99827.417
0.76046443 -0.05 0.025564039 99822.033
0.75422902 -0.05 0.026289006 99816.663
0.74799298 -0.05 0.027008488 99811.329
0.74175631 -0.05 0.027722468 99806.002
0.735519 -0.05 0.028430933 99800.693
0.72928107 -0.05 0.029133846 99795.448
0.72304252 -0.05 0.029831241 99790.121
0.71680336 -0.05 0.030523147 99784.722
0.71056358 -0.05 0.031209391 99779.554
0.70432317 -0.05 0.031890022 99774.123
0.69808215 -0.05 0.032565007 99768.906
0.69184051 -0.05 0.033234251 99763.583
0.68559828 -0.05 0.033897813 99758.329
0.67935542 -0.05 0.034555593 99753.079
0.67311196 -0.05 0.035207602 99747.687
0.66686789 -0.05 0.035853724 99742.416
0.66062321 -0.05 0.036493857 99737.132
0.65437791 -0.05 0.037128087 99731.664
0.64813202 -0.05 0.037756327 99726.243
0.64188551 -0.05 0.038378412 99720.871
0.63563838 -0.05 0.038994309 99715.455
0.62939065 -0.05 0.039604018 99709.992
0.62314231 -0.05 0.040207405 99704.658
0.61689334 -0.05 0.040804383 99699.223
0.61064377 -0.05 0.04139495 99693.737
0.60439359 -0.05 0.04197896 99688.279
0.59814279 -0.05 0.042556342 99682.705
0.59189137 -0.05 0.043127012 99677.141
0.58563934 -0.05 0.04369088 99671.463
0.57938667 -0.05 0.044247828 99665.824
0.57313339 -0.05 0.044797714 99660.224
0.5668795 -0.05 0.045340504 99654.594
0.56062498 -0.05 0.045876074 99648.981
0.55436983 -0.05 0.046404266 99643.328
0.54811405 -0.05 0.046925006 99637.555
0.54185765 -0.05 0.047438132 99631.778
0.53560061 -0.05 0.047943505 99625.896
0.52934295 -0.05 0.048441054 99619.956
0.52308467 -0.05 0.048930608 99613.991
0.51682574 -0.05 0.049412023 99607.972
0.51056618 -0.05 0.049885132 99602.049
0.50430599 -0.05 0.050349797 99596.075
0.49804518 -0.05 0.050805896 99590.028
0.49178373 -0.05 0.051253229 99583.92
0.48552164 -0.05 0.051691594 99577.806
0.47925893 -0.05 0.052120867 99571.526
0.47299558 -0.05 0.052540908 99565.168
0.46673161 -0.05 0.052951468 99558.807
0.46046702 -0.05 0.053352333 99552.443
0.4542018 -0.05 0.053743338 99545.995
0.44793595 -0.05 0.054124302 99539.458
0.4416695 -0.05 0.054494998 99532.812
0.43540243 -0.05 0.054855186 99526.2
0.42913476 -0.05 0.055204655 99519.564
0.42286649 -0.05 0.055543207 99512.834
0.41659761 -0.05 0.055870591 99506.051
0.41032816 -0.05 0.056186531 99499.256
0.40405813 -0.05 0.0564908 99492.335
0.39778753 -0.05 0.056783115 99485.404
0.39151638 -0.05 0.057063165 99478.446
0.38524467 -0.05 0.057330736 99471.424
0.37897244 -0.05 0.057585586 99464.32
0.37269969 -0.05 0.057827317 99457.298
0.36642643 -0.05 0.058055609 99450.219
0.36015269 -0.05 0.058270219 99443.136
0.35387849 -0.05 0.058470811 99435.997
0.34760385 -0.05 0.058657027 99428.865
0.34132878 -0.05 0.058828481 99421.744
0.33505332 -0.05 0.058984842 99414.568
0.32877749 -0.05 0.059125719 99407.433
0.32250133 -0.05 0.059250688 99400.354
0.31622487 -0.05 0.05935936 99393.241
0.30994814 -0.05 0.059451318 99385.794
0.30367117 -0.05 0.059526128 99378.435
