# wallShearStress  FACE_DATA 448
# x y z  wallShearStress_x wallShearStress_y wallShearStress_z
0.29662448 -0.05 -0.060421745 -6.6895707 -3.3346517e-17 0.083160231
0.2909876 -0.05 -0.060358091 -6.9361632 5.4855489e-17 0.10414343
0.28543205 -0.05 -0.060280785 -7.2045732 6.6413884e-17 0.12718434
0.27995669 -0.05 -0.060190028 -7.4716362 -1.8270277e-16 0.15189998
0.27456041 -0.05 -0.060086078 -7.742166 1.8018852e-16 0.1782584
0.26924211 -0.05 -0.059969222 -8.0141305 -3.670746e-17 0.20631152
0.26400069 -0.05 -0.059839724 -8.2859256 -7.3123789e-17 0.23601141
0.25883509 -0.05 -0.059697823 -8.557818 -1.890977e-17 0.26759487
0.25374427 -0.05 -0.059543795 -8.8306752 -1.4769829e-16 0.30090104
0.24872717 -0.05 -0.05937788 -9.1047792 2.0148664e-16 0.33627296
0.24378278 -0.05 -0.059200252 -9.3784535 7.3263394e-17 0.37329072
0.23891008 -0.05 -0.059011181 -9.6512116 -2.5931735e-17 0.41200126
0.23410809 -0.05 -0.058810902 -9.9207888 4.0081727e-16 0.452216
0.22937581 -0.05 -0.058599669 -10.183808 3.0255578e-17 0.49399289
0.2247123 -0.05 -0.058377718 -10.440064 7.8921436e-17 0.53750747
0.22011659 -0.05 -0.058145213 -10.687989 3.0692607e-16 0.58259239
0.21558774 -0.05 -0.057902409 -10.926939 -3.6257887e-16 0.62902657
0.21112484 -0.05 -0.057649524 -11.161667 -1.0198139e-17 0.67747685
0.20672697 -0.05 -0.05738668 -11.395462 -2.0016504e-16 0.72756525
0.20239323 -0.05 -0.057114137 -11.633555 -4.2252507e-16 0.77921684
0.19812274 -0.05 -0.0568321 -11.871593 1.2485323e-16 0.83219239
0.19391463 -0.05 -0.056540794 -12.10304 -2.8743928e-16 0.88609794
0.18976803 -0.05 -0.056240415 -12.317511 2.0823198e-16 0.94122567
0.1856821 -0.05 -0.055931042 -12.507821 -3.8929045e-17 0.99789754
0.18165601 -0.05 -0.055612918 -12.676467 2.5633766e-16 1.057206
0.17768895 -0.05 -0.05528623 -12.839487 -3.9395538e-16 1.1208347
0.17378009 -0.05 -0.054951131 -13.020553 -1.2547807e-16 1.1891874
0.16992863 -0.05 -0.054607822 -13.229084 4.7601319e-16 1.262483
0.1661338 -0.05 -0.054256459 -13.455186 6.2785704e-16 1.3396126
0.16239482 -0.05 -0.053897172 -13.698234 -3.7413245e-16 1.4210325
0.15871093 -0.05 -0.053530088 -13.961035 -4.5680192e-17 1.5062998
0.15508137 -0.05 -0.053155422 -14.25338 -1.1369854e-16 1.596409
0.15150541 -0.05 -0.052773284 -14.579351 5.9740173e-17 1.6926102
0.14798232 -0.05 -0.05238381 -14.930227 -5.6230436e-16 1.7941893
0.14451139 -0.05 -0.051987142 -15.29361 -4.6902681e-16 1.9007008
0.1410919 -0.05 -0.05158337 -15.659275 -1.4030064e-16 2.0110439
0.13772318 -0.05 -0.051172645 -16.021777 2.0164373e-16 2.1249044
0.13440453 -0.05 -0.050755077 -16.377668 7.5402991e-17 2.2422617
0.13113527 -0.05 -0.050330831 -16.725383 -2.1766393e-16 2.3625982
0.12791474 -0.05 -0.049900009 -17.063747 8.0346177e-16 2.4863044
0.1247423 -0.05 -0.049462632 -17.390641 -2.7474631e-16 2.6125165
0.12161731 -0.05 -0.049018879 -17.706463 -2.3644463e-16 2.7411449
0.11853911 -0.05 -0.048568863 -18.010797 3.514141e-16 2.87404
0.11550712 -0.05 -0.048112596 -18.302269 -3.5343645e-16 3.0095536
0.11252072 -0.05 -0.047650147 -18.580648 5.7210775e-16 3.1473261
0.10957931 -0.05 -0.04718164 -18.846136 2.7674629e-16 3.2875922
0.1066823 -0.05 -0.046707103 -19.097975 4.8657402e-16 3.4302559
0.10382912 -0.05 -0.046226621 -19.337778 -2.0409631e-17 3.5748853
0.10101918 -0.05 -0.045740348 -19.566539 -7.1085286e-16 3.7225276
0.098251934 -0.05 -0.045248216 -19.782231 -1.6073582e-16 3.8725647
0.095526852 -0.05 -0.044750277 -19.985501 4.7202527e-16 4.0244076
0.092843376 -0.05 -0.044246666 -20.177359 -2.1166263e-16 4.1791184
0.090201005 -0.05 -0.043737293 -20.355568 2.9743832e-16 4.3358276
0.087599216 -0.05 -0.043222219 -20.521693 -2.7659539e-16 4.4941016
0.085037499 -0.05 -0.042701502 -20.676221 1.0150934e-16 4.6543532
0.08251536 -0.05 -0.042175164 -20.820402 2.5823093e-16 4.8164364
0.08003231 -0.05 -0.04164324 -20.953184 -6.8960472e-16 4.9817976
0.077587902 -0.05 -0.041105619 -21.069644 -1.699132e-16 5.1483577
0.07518168 -0.05 -0.040562289 -21.170423 4.9194788e-17 5.3158967
0.072813176 -0.05 -0.040013316 -21.256653 1.3788238e-16 5.4850358
0.070481944 -0.05 -0.039458712 -21.327976 -3.8511776e-16 5.6563176
0.068187581 -0.05 -0.038898358 -21.382528 5.7898542e-16 5.8288162
0.065929676 -0.05 -0.03833221 -21.420623 4.7326564e-16 6.0022286
0.063707819 -0.05 -0.037760256 -21.442398 -8.5562417e-16 6.1770669
0.061521633 -0.05 -0.0371824 -21.446981 -4.8617622e-16 6.3532876
0.059370752 -0.05 -0.036598552 -21.433677 3.6238494e-16 6.5308798
0.057254812 -0.05 -0.036008645 -21.402207 3.677901e-16 6.7093685
0.055173473 -0.05 -0.035412571 -21.352302 2.1414029e-16 6.888337
0.053126388 -0.05 -0.03481029 -21.285011 1.2246896e-16 7.0687588
0.051113267 -0.05 -0.034201611 -21.197333 4.8061411e-16 7.249354
0.049133821 -0.05 -0.033586375 -21.089978 -1.2322181e-16 7.4300455
0.047187749 -0.05 -0.032964515 -20.962955 -7.6923277e-16 7.6108286
0.0452748 -0.05 -0.032335842 -20.815827 9.3586413e-17 7.7920912
0.04339474 -0.05 -0.031700166 -20.647389 -2.637127e-16 7.9731565
0.041547382 -0.05 -0.031057209 -20.455704 2.5574766e-16 8.1527491
0.039732527 -0.05 -0.030406772 -20.241405 8.0806349e-16 8.3305506
0.037949982 -0.05 -0.029748705 -20.004908 -4.5021149e-16 8.5072399
0.036199616 -0.05 -0.029082718 -19.744309 6.0599316e-16 8.6818359
0.034481334 -0.05 -0.028408503 -19.458657 -1.1602597e-15 8.8535369
0.032795065 -0.05 -0.027725743 -19.146529 -5.0450691e-16 9.021243
0.031140761 -0.05 -0.027034123 -18.808056 3.1362081e-16 9.184739
0.029518422 -0.05 -0.02633329 -18.444985 2.8192007e-17 9.3416452
0.027928109 -0.05 -0.025622812 -18.052635 -1.2644178e-16 9.4926915
0.026369898 -0.05 -0.02490231 -17.630963 -5.3255632e-16 9.6357603
0.024843946 -0.05 -0.024171299 -17.179239 6.3611986e-16 9.768984
0.023350469 -0.05 -0.023429266 -16.696808 4.0871396e-16 9.890819
0.021889737 -0.05 -0.022675706 -16.18298 -4.8134529e-16 9.9993689
0.02046214 -0.05 -0.021909997 -15.635628 -5.1878525e-17 10.091249
0.019068095 -0.05 -0.021131573 -15.053778 3.0172327e-16 10.165533
0.017708187 -0.05 -0.020339716 -14.436621 -9.2396198e-17 10.217043
0.016383088 -0.05 -0.019533679 -13.784352 -5.6393446e-16 10.243286
0.01509356 -0.05 -0.018712728 -13.097308 -2.2401159e-16 10.24057
0.013840558 -0.05 -0.01787603 -12.376129 1.0871835e-16 10.206015
0.01262522 -0.05 -0.01702274 -11.619904 1.051989e-16 10.131976
0.011448879 -0.05 -0.016151981 -10.827691 -1.0804375e-15 10.011809
0.010313097 -0.05 -0.015262777 -10.001993 1.5690128e-16 9.8397291
0.0092196347 -0.05 -0.014354094 -9.1501478 -2.8053229e-16 9.6141496
0.0081705658 -0.05 -0.013425103 -8.2772765 6.0518396e-16 9.3252254
0.0071683889 -0.05 -0.01247499 -7.3828476 -9.742375e-17 8.9653984
0.0062158475 -0.05 -0.011502697 -6.4769998 3.2240403e-16 8.5206165
0.0053160069 -0.05 -0.01050753 -5.5712285 4.3162419e-16 7.9799682
0.0044726013 -0.05 -0.0094893598 -4.6808697 9.9816174e-18 7.3366324
0.0036895043 -0.05 -0.0084478489 -3.821438 -3.1228521e-16 6.5963083
0.0029708017 -0.05 -0.0073832144 -2.9943712 1.0095456e-16 5.7598496
0.0023212193 -0.05 -0.0062968209 -2.2307777 1.4423258e-16 4.844492
0.001745317 -0.05 -0.005190185 -1.5615371 1.1247905e-16 3.8641509
0.0012474118 -0.05 -0.004065846 -1.0103215 -1.166403e-16 2.8438355
0.00083139188 -0.05 -0.0029278774 -0.59038922 3.199846e-16 1.8149934
0.00050029606 -0.05 -0.0017807084 -0.34387681 2.1971025e-16 0.97339279
0.00025582717 -0.05 -0.00062965999 -0.20278944 4.8607016e-17 0.31991218
9.8012098e-05 -0.05 0.00051920926 -0.1404221 1.2449284e-17 -0.25511102
2.5297657e-05 -0.05 0.0016598483 -0.1307365 1.1610651e-18 -0.89918088
0.99686003 -0.05 -0.007104015 0.14534059 -2.58129e-16 -0.14095042
0.99063913 -0.05 -0.0079444833 -0.0080227428 7.4199386e-16 -0.00034270689
0.98441729 -0.05 -0.0087779554 0.0097900094 -4.4812983e-16 0.00092891817
0.97819453 -0.05 -0.0096044586 -0.0022065902 3.1166669e-16 -0.0002378408
0.97197086 -0.05 -0.010424099 0.004725968 1.998668e-16 0.00042991674
0.96574631 -0.05 -0.011237035 0.0019939605 -9.2230688e-16 0.00010039459
0.95952088 -0.05 -0.01204325 0.0036591959 2.7885593e-17 0.00031985314
0.9532946 -0.05 -0.012842808 0.0031856461 -2.0776178e-16 0.00023134135
0.9470675 -0.05 -0.013635864 0.0036425102 3.6943311e-16 0.00029538142
0.94083956 -0.05 -0.014422502 0.0036823358 2.5498522e-16 0.00027941177
0.93461083 -0.05 -0.015202727 0.0039048886 -1.5054331e-16 0.00030619583
0.92838131 -0.05 -0.015976599 0.0040348109 8.6537371e-16 0.00030749224
0.922151 -0.05 -0.016744196 0.0041948198 -3.734841e-17 0.00032486862
0.91591992 -0.05 -0.017505553 0.0043307501 3.2907571e-17 0.00033671292
0.90968812 -0.05 -0.01826082 0.004499986 -7.0774903e-16 0.00035956627
0.90345557 -0.05 -0.019009995 0.0046742054 6.3187148e-16 0.00037464867
0.8972223 -0.05 -0.01975311 0.0048491313 1.8519095e-16 0.00036393264
0.89098833 -0.05 -0.020490301 0.0049703605 -7.1347238e-17 0.00036864828
0.88475366 -0.05 -0.021221581 0.005140785 -4.2626193e-16 0.00037370774
0.87851829 -0.05 -0.021946895 0.005255372 2.0434697e-17 0.00037888553
0.87228224 -0.05 -0.022666379 0.0054096428 1.0107935e-16 0.00038999288
0.86604554 -0.05 -0.023380102 0.0055324817 -2.9810938e-16 0.00039594122
0.85980817 -0.05 -0.024088036 0.0057962334 3.2927812e-16 0.00039026597
0.85357016 -0.05 -0.024790267 0.0062022778 -1.6280705e-16 0.00037805108
0.84733152 -0.05 -0.025486857 0.006830531 7.7293513e-16 0.00032790054
0.84109225 -0.05 -0.026177793 0.010000925 3.9761775e-16 0.00043496782
0.83485236 -0.05 -0.026863039 0.011074068 -9.7099889e-16 0.00067420355
0.82861185 -0.05 -0.02754277 0.010199784 -3.6603912e-16 0.00072237491
0.82237075 -0.05 -0.028216948 0.010936669 -3.0138038e-16 0.00084029797
0.81612904 -0.05 -0.028885524 0.0095578713 1.6260222e-16 0.00067250006
0.80988675 -0.05 -0.029548578 0.010404604 -2.9073084e-16 0.00074541478
0.80364387 -0.05 -0.03020612 0.0094449954 6.3862607e-17 0.00067477952
0.79740042 -0.05 -0.030858183 0.0094209143 9.783082e-17 0.00063094371
0.79115639 -0.05 -0.03150472 0.0088733254 2.7869182e-16 0.00057273703
0.7849118 -0.05 -0.032145819 0.0079574017 -1.1471596e-17 0.00047940515
0.77866665 -0.05 -0.032781444 0.0066614373 2.0922589e-16 0.00033187471
0.77242095 -0.05 -0.033411565 0.004949926 5.5950791e-16 0.00014609524
0.7661747 -0.05 -0.034036241 0.0028290986 -2.5376901e-16 -6.4344235e-05
0.75992789 -0.05 -0.034655458 0.00029013566 -1.3930739e-16 -0.00030922989
0.75368056 -0.05 -0.035269208 -0.0025675022 -5.5904005e-16 -0.00052645609
0.74743269 -0.05 -0.035877461 -0.0048286424 -6.2221094e-17 -0.00075612358
0.74118428 -0.05 -0.036480203 -0.0074315251 -1.1398434e-16 -0.0010034891
0.73493534 -0.05 -0.037077419 -0.010401576 2.0821461e-16 -0.0012795364
0.72868587 -0.05 -0.037669073 -0.013756841 -6.9154679e-17 -0.0015866585
0.72243589 -0.05 -0.038255198 -0.017547273 3.9570361e-16 -0.0019252438
0.71618539 -0.05 -0.038835825 -0.021829998 -2.7077378e-16 -0.0022969676
0.70993436 -0.05 -0.039410779 -0.026557674 -1.2183763e-16 -0.0027056526
0.70368282 -0.05 -0.039980109 -0.031834892 -3.9253018e-17 -0.0031455489
0.69743077 -0.05 -0.040543784 -0.037736732 -3.0826302e-16 -0.0036327656
0.6911782 -0.05 -0.041101709 -0.044294917 -3.2471841e-16 -0.0041547097
0.68492513 -0.05 -0.041653942 -0.051728369 -3.7719029e-18 -0.0047379693
0.67867154 -0.05 -0.042200382 -0.060039939 -3.0907034e-16 -0.0053767389
0.67241746 -0.05 -0.042741041 -0.069358141 -1.4901795e-16 -0.0060779405
0.66616287 -0.05 -0.043275802 -0.079652088 2.5617909e-16 -0.0068419264
0.65990777 -0.05 -0.043804566 -0.090840687 1.7042456e-16 -0.0076615251
0.65365217 -0.05 -0.044327417 -0.10308742 -7.0097206e-17 -0.0085396922
0.64739607 -0.05 -0.044844267 -0.11648139 -9.9878898e-17 -0.0094801762
0.64113946 -0.05 -0.045354952 -0.1310047 -2.3004874e-16 -0.010480453
0.63488235 -0.05 -0.04585944 -0.14667371 -1.5495711e-17 -0.011540793
0.62862475 -0.05 -0.04635773 -0.16358101 2.3296153e-16 -0.012659813
0.62236665 -0.05 -0.046849689 -0.1817219 1.3498134e-16 -0.013837471
0.61610805 -0.05 -0.047335227 -0.20118 -1.1112888e-16 -0.015070224
0.60984894 -0.05 -0.047814344 -0.22220637 -2.9123794e-16 -0.016389892
0.60358934 -0.05 -0.048286897 -0.24581861 1.4312843e-16 -0.017828677
0.59732925 -0.05 -0.04875281 -0.27188892 2.179221e-17 -0.019367225
0.59106865 -0.05 -0.049212001 -0.29970752 3.3038596e-17 -0.020997974
0.58480756 -0.05 -0.04966438 -0.32937499 -3.4883409e-16 -0.02268553
0.57854598 -0.05 -0.050109831 -0.36112026 2.1917378e-17 -0.024440484
0.5722839 -0.05 -0.050548208 -0.39485555 -7.5228971e-17 -0.026257428
0.56602132 -0.05 -0.050979479 -0.43073307 -1.5693791e-16 -0.028139337
0.55975824 -0.05 -0.051403522 -0.4687899 -1.5663124e-16 -0.030066766
0.55349468 -0.05 -0.051820174 -0.50916114 1.4038152e-16 -0.032043129
0.54723062 -0.05 -0.052229366 -0.55213878 -2.4617186e-16 -0.034068603
0.54096606 -0.05 -0.052630934 -0.59779228 3.0910016e-16 -0.036149084
0.53470102 -0.05 -0.053024739 -0.6459605 2.1406802e-16 -0.038263558
0.52843548 -0.05 -0.05341071 -0.69700098 1.2498763e-16 -0.040410539
0.52216946 -0.05 -0.053788675 -0.75106534 1.6895945e-16 -0.042580524
0.51590296 -0.05 -0.054158492 -0.80861246 -3.6282159e-17 -0.04479284
0.50963596 -0.05 -0.054519993 -0.86959698 -1.6774074e-16 -0.047024303
0.50336848 -0.05 -0.05487304 -0.93387321 3.7481541e-17 -0.049257332
0.49710053 -0.05 -0.05521751 -1.001748 -1.9028346e-16 -0.05147195
0.4908321 -0.05 -0.055553205 -1.0735423 -2.0606674e-16 -0.053654771
0.4845632 -0.05 -0.055879923 -1.1500525 1.1133659e-16 -0.055889993
0.47829384 -0.05 -0.056197538 -1.2350937 4.2776522e-18 -0.058546883
0.472024 -0.05 -0.056505912 -1.3354042 3.7019304e-17 -0.061634627
0.46575371 -0.05 -0.056804796 -1.4437304 1.8257894e-16 -0.064398593
0.45948296 -0.05 -0.057093973 -1.5553703 -2.4232444e-16 -0.066847678
0.45321178 -0.05 -0.057373283 -1.6711517 -2.5030146e-16 -0.069142327
0.44694014 -0.05 -0.057642542 -1.7917557 -1.7639434e-16 -0.070940137
0.44066808 -0.05 -0.057901523 -1.9176282 8.5398494e-17 -0.07203688
0.43439559 -0.05 -0.058149987 -2.0489391 -3.4785588e-18 -0.073155159
0.42812268 -0.05 -0.058387723 -2.1864993 7.1885478e-17 -0.074418064
0.42184936 -0.05 -0.058614532 -2.3302009 -1.7214836e-17 -0.075324538
0.41557566 -0.05 -0.058830166 -2.4801754 2.1391852e-16 -0.075817853
0.40930157 -0.05 -0.059034346 -2.636645 -4.9775942e-17 -0.075834909
0.40302712 -0.05 -0.059226847 -2.8001128 -7.4956921e-17 -0.075367023
0.3967523 -0.05 -0.059407386 -2.9702674 -1.2499865e-16 -0.074316188
0.39047716 -0.05 -0.059575652 -3.1467781 -2.6098847e-17 -0.072645018
0.38420168 -0.05 -0.05973143 -3.3303511 7.4132236e-17 -0.070283085
0.37792591 -0.05 -0.059874481 -3.5216713 3.3558782e-17 -0.067147851
0.37164984 -0.05 -0.060004406 -3.7200643 5.7191818e-17 -0.063131773
0.36537351 -0.05 -0.060120884 -3.9251147 7.825157e-17 -0.058251814
0.35909694 -0.05 -0.060223674 -4.1377261 7.3630135e-17 -0.05232509
0.35282017 -0.05 -0.060312439 -4.3582421 -6.7789557e-17 -0.045311478
0.3465432 -0.05 -0.060386824 -4.5864065 -5.1518705e-18 -0.03723749
0.34026608 -0.05 -0.060446442 -4.8216803 -3.2989427e-19 -0.028361782
0.33398882 -0.05 -0.060490961 -5.0641104 1.4663261e-17 -0.016861939
0.32771149 -0.05 -0.060519994 -5.31427 -4.0437945e-17 -0.0044046084
0.3214341 -0.05 -0.060533115 -5.5717885 1.707534e-18 0.0098290914
0.31515669 -0.05 -0.060529934 -5.8356365 -1.4441272e-17 0.026223582
0.30887931 -0.05 -0.060510038 -6.1078827 -1.3785112e-17 0.044056312
0.30260201 -0.05 -0.060472992 -6.4032231 -5.6083153e-18 0.063231946
0.29769367 -0.05 0.059581396 -7.1344426 -9.0051497e-17 0.058779419
0.29205655 -0.05 0.05961819 -6.9939229 -1.0434183e-17 0.038181446
0.28650051 -0.05 0.059639885 -6.8521149 -8.971769e-19 0.018868084
0.28102441 -0.05 0.059646703 -6.7168779 -5.609439e-19 0.00029885431
0.27562713 -0.05 0.05963892 -6.5886357 -1.6515364e-18 -0.018060066
0.27030759 -0.05 0.059616845 -6.4672979 -4.400664e-18 -0.035765717
0.26506469 -0.05 0.05958076 -6.3528288 -2.5016029e-17 -0.051542335
0.25989738 -0.05 0.059530922 -6.2449724 -6.8517459e-18 -0.067369611
0.25480463 -0.05 0.059467627 -6.1437779 -7.3301846e-17 -0.082864673
0.24978537 -0.05 0.059391133 -6.0489516 5.0696475e-17 -0.098631346
0.24483859 -0.05 0.059301632 -5.9592289 1.1656475e-16 -0.11408969
0.2399633 -0.05 0.059199414 -5.8741519 6.6574565e-17 -0.12926281
0.2351585 -0.05 0.059084729 -5.7924366 -3.571825e-17 -0.14417683
0.23042323 -0.05 0.058957849 -5.7139278 -5.6538403e-17 -0.15894976
0.22575649 -0.05 0.058819028 -5.6394111 1.0919461e-16 -0.17364943
0.22115737 -0.05 0.058668446 -5.5684069 -8.8044075e-17 -0.18821263
0.21662491 -0.05 0.058506376 -5.5010952 -1.7565095e-17 -0.20260055
0.21215821 -0.05 0.058333051 -5.4376191 2.2477544e-16 -0.2170375
0.20775635 -0.05 0.058148611 -5.3770574 4.8562425e-17 -0.23133397
0.20341844 -0.05 0.057953329 -5.3197816 5.5273167e-17 -0.24554878
0.19914361 -0.05 0.057747429 -5.265844 -1.2810316e-16 -0.25976258
0.19493098 -0.05 0.057531149 -5.2152363 8.8584488e-17 -0.2739602
0.19077969 -0.05 0.057304703 -5.1681353 -2.304553e-16 -0.28834403
0.18668889 -0.05 0.057068181 -5.1236101 2.4979656e-16 -0.30273617
0.18265778 -0.05 0.056821845 -5.0820129 2.5113822e-16 -0.31713986
0.17868553 -0.05 0.056565894 -5.0436596 1.8952423e-16 -0.33177212
0.17477131 -0.05 0.056300496 -5.0077835 2.6640152e-16 -0.34642248
0.17091435 -0.05 0.056025868 -4.9749139 1.4162826e-16 -0.36130622
0.16711386 -0.05 0.055742178 -4.9445584 3.3362666e-16 -0.37636802
0.16336907 -0.05 0.055449569 -4.9167295 5.9035023e-16 -0.39170536
0.15967923 -0.05 0.055148182 -4.8909141 -4.4042747e-16 -0.40714751
0.15604356 -0.05 0.054838247 -4.8677246 1.7024369e-16 -0.42288783
0.15246136 -0.05 0.054519887 -4.8468922 -3.2247421e-16 -0.43894309
0.1489319 -0.05 0.054193249 -4.8282194 1.4274063e-16 -0.45523333
0.14545444 -0.05 0.05385849 -4.8122204 1.195284e-16 -0.47200598
0.14202831 -0.05 0.05351571 -4.7984253 -4.0956691e-16 -0.48912136
0.13865279 -0.05 0.053165074 -4.7868807 3.380086e-16 -0.50661234
0.13532723 -0.05 0.052806705 -4.7773513 -1.2949365e-16 -0.52445154
0.13205093 -0.05 0.052440777 -4.7700345 -1.9751737e-17 -0.54272093
0.12882324 -0.05 0.052067408 -4.7650134 -9.713641e-17 -0.56165381
0.12564352 -0.05 0.051686627 -4.7610944 -2.3240557e-16 -0.580858
0.12251111 -0.05 0.051298626 -4.7590515 -2.6480328e-16 -0.60049817
0.11942538 -0.05 0.050903529 -4.759566 -2.7430202e-16 -0.62095238
0.11638575 -0.05 0.050501359 -4.7618369 -2.1918404e-16 -0.64201099
0.11339158 -0.05 0.050092195 -4.7658564 1.8681946e-16 -0.6636438
0.11044228 -0.05 0.049676171 -4.7719098 2.373254e-16 -0.6860319
0.10753728 -0.05 0.049253328 -4.7798786 -4.986605e-16 -0.70925414
0.10467599 -0.05 0.048823762 -4.7893836 7.085993e-17 -0.7330192
0.10185783 -0.05 0.048387633 -4.8013559 5.3809458e-16 -0.75787708
0.099082258 -0.05 0.047944887 -4.8142375 -2.9825779e-16 -0.7834025
0.096348738 -0.05 0.047495582 -4.8278257 1.2698717e-16 -0.80946983
0.093656714 -0.05 0.047039864 -4.8438399 4.3883073e-16 -0.83690615
0.091005687 -0.05 0.046577655 -4.8614979 2.3012054e-16 -0.86537576
0.088395134 -0.05 0.046109021 -4.880367 -7.0338771e-17 -0.89466531
0.085824545 -0.05 0.045634032 -4.9012728 -7.6168363e-17 -0.92519491
0.083293428 -0.05 0.045152717 -4.923084 -8.8811236e-17 -0.95667311
0.080801294 -0.05 0.04466512 -4.947092 2.8579245e-16 -0.98979606
0.078347696 -0.05 0.044171141 -4.9719781 3.5519379e-16 -1.0240099
0.075932174 -0.05 0.043670771 -4.9984415 3.6544523e-16 -1.0594386
0.073554263 -0.05 0.043164087 -5.0272952 1.3506993e-16 -1.096519
0.07121352 -0.05 0.042651108 -5.0581836 3.4725468e-16 -1.1354829
0.068909538 -0.05 0.042131725 -5.0888424 -6.0951809e-16 -1.1756269
0.066641903 -0.05 0.041605897 -5.1186302 -2.3286e-16 -1.2167788
0.064410207 -0.05 0.041073624 -5.1491577 -1.1213059e-16 -1.2596337
0.062214073 -0.05 0.040534814 -5.1809453 5.6660538e-16 -1.3045497
0.06005313 -0.05 0.039989383 -5.2152149 -1.7421975e-16 -1.3520901
0.057927015 -0.05 0.039437271 -5.2520299 -1.0144633e-16 -1.4022531
0.055835385 -0.05 0.038878377 -5.2902544 -4.2134826e-16 -1.4545186
0.053777894 -0.05 0.038312667 -5.328869 -4.1780028e-16 -1.5089599
0.051754246 -0.05 0.037739954 -5.3674256 9.9555231e-17 -1.5653096
0.049764153 -0.05 0.037160087 -5.4045632 5.8609961e-16 -1.6234159
0.04780731 -0.05 0.036573 -5.4438904 4.4809926e-16 -1.685519
0.045883462 -0.05 0.035978511 -5.4840885 -2.4433711e-16 -1.7512122
0.043992374 -0.05 0.035376435 -5.5240221 -5.8842546e-16 -1.8200886
0.042133852 -0.05 0.034766496 -5.5614722 1.2449422e-16 -1.8909319
0.040307697 -0.05 0.034148501 -5.5979433 -3.4532388e-16 -1.9647081
0.038513709 -0.05 0.033522299 -5.6363123 5.419665e-16 -2.0440136
0.036751756 -0.05 0.032887606 -5.679098 -2.6904047e-16 -2.1298684
0.035021733 -0.05 0.032244114 -5.7234222 4.9366095e-16 -2.2214383
0.033323566 -0.05 0.031591509 -5.7672748 -5.7188109e-17 -2.3170084
0.031657202 -0.05 0.030929475 -5.8053703 2.4790343e-16 -2.4148162
0.030022632 -0.05 0.03025766 -5.8377141 2.5145184e-16 -2.5168836
0.028419913 -0.05 0.029575631 -5.8650237 -3.1440224e-17 -2.6264813
0.026849111 -0.05 0.028883007 -5.891395 6.0722328e-16 -2.7443865
0.025310375 -0.05 0.028179302 -5.9075205 3.4635307e-16 -2.8632166
0.023803914 -0.05 0.027463998 -5.9093905 -3.3903215e-16 -2.9817881
0.022329986 -0.05 0.026736585 -5.910687 2.0123699e-16 -3.1065632
0.020888974 -0.05 0.025996434 -5.9164445 -1.0483402e-15 -3.2427435
0.01948128 -0.05 0.025242973 -5.9130805 -1.8562683e-17 -3.3841097
0.018107479 -0.05 0.024475473 -5.8688396 -1.3921162e-16 -3.5139979
0.016768227 -0.05 0.023693175 -5.7503004 4.7435465e-16 -3.6203567
0.015464276 -0.05 0.022895331 -5.569407 -2.3255279e-17 -3.7145987
0.014196565 -0.05 0.022081092 -5.3482793 -7.4467832e-16 -3.8221159
0.012966217 -0.05 0.021249592 -5.13239 1.0759627e-16 -3.987443
0.011774547 -0.05 0.020399931 -4.9626707 3.5821335e-16 -4.2515028
0.010623101 -0.05 0.019531105 -4.8173382 -5.5981538e-16 -4.6308405
0.0095136212 -0.05 0.018642051 -4.7112596 8.7616248e-16 -5.1295722
0.0084481662 -0.05 0.017731899 -4.6722983 -6.286887e-16 -5.6991331
0.0074292192 -0.05 0.016799794 -4.7483007 3.645894e-16 -6.3465366
0.0064595048 -0.05 0.015844628 -4.8351971 8.7578635e-17 -6.9961687
0.0055420751 -0.05 0.014865652 -4.8339519 1.397532e-16 -7.5451788
0.0046806616 -0.05 0.013862672 -4.6775278 1.0166792e-16 -7.9386925
0.0038791313 -0.05 0.012835279 -4.3618983 -2.1266471e-16 -8.1521351
0.003141573 -0.05 0.01178362 -3.9030769 2.9129662e-16 -8.1568138
0.0024727363 -0.05 0.010708973 -3.339675 -2.4029708e-16 -7.9188313
0.0018772074 -0.05 0.0096127742 -2.7144103 -6.1660651e-16 -7.467988
0.0013593477 -0.05 0.0084974853 -2.080997 -1.687752e-16 -6.8125083
0.00092311747 -0.05 0.0073671102 -1.4752091 -1.4174311e-16 -5.9583586
0.00057163386 -0.05 0.0062260226 -0.94851228 -1.0437581e-17 -4.9680996
0.00030669436 -0.05 0.0050795129 -0.57195984 -3.5136555e-17 -3.8912977
0.00012843374 -0.05 0.0039336381 -0.32370103 -2.4263287e-17 -2.7800715
3.540688e-05 -0.05 0.0027944757 -0.18796502 8.2417958e-18 -1.7046509
0.99686803 -0.05 -0.0062046983 -62.910355 -1.1038923e-15 9.2772988
0.99066311 -0.05 -0.0052535195 -58.164949 1.0317511e-15 8.8526864
0.98445711 -0.05 -0.0043093187 -58.125018 1.2110952e-15 8.7903228
0.97825006 -0.05 -0.0033720694 -57.696772 1.8191543e-15 8.6626126
0.97204199 -0.05 -0.0024416655 -57.316954 4.6074557e-16 8.5412964
0.9658329 -0.05 -0.0015179488 -56.888062 -3.9693548e-16 8.4154589
0.95962284 -0.05 -0.00060093655 -56.450708 -5.7010825e-16 8.2888613
0.95341179 -0.05 0.0003094346 -55.996445 -8.3516557e-17 8.1627378
0.94719979 -0.05 0.0012133193 -55.532402 -1.252024e-15 8.0365398
0.94098687 -0.05 0.0021108017 -55.057662 3.0759336e-17 7.9106503
0.93477302 -0.05 0.0030018869 -54.573456 -1.7756688e-15 7.7842178
0.92855827 -0.05 0.0038866347 -54.079901 -1.1349689e-15 7.658835
0.92234263 -0.05 0.0047651216 -53.578169 -4.1036086e-16 7.5332339
0.91612612 -0.05 0.0056373825 -53.069019 -1.1399199e-15 7.4087931
0.90990876 -0.05 0.0065035682 -52.555545 -8.2842278e-16 7.2851802
0.90369055 -0.05 0.0073636763 -52.038086 3.5972548e-16 7.1620377
0.89747151 -0.05 0.0082177379 -51.518588 1.6556137e-16 7.0405447
0.89125167 -0.05 0.009065889 -50.998282 -2.0607932e-16 6.9204077
0.88503101 -0.05 0.0099081433 -50.477229 -2.9864631e-16 6.8009653
0.87880956 -0.05 0.010744444 -49.954387 -1.2480948e-15 6.6827432
0.87258733 -0.05 0.011574928 -49.431223 3.4199682e-16 6.5666137
0.86636432 -0.05 0.012399663 -48.907131 -1.5601608e-16 6.4510019
0.86014056 -0.05 0.013218623 -48.381011 1.2962516e-15 6.3367504
0.85391606 -0.05 0.014031891 -47.852019 1.0214159e-15 6.2235748
0.84769081 -0.05 0.014839531 -47.32008 5.1273191e-16 6.1112163
0.84146485 -0.05 0.015641529 -46.784155 -3.6086423e-16 5.9991767
0.83523816 -0.05 0.016437849 -46.243623 -8.7691726e-16 5.888006
0.82901075 -0.05 0.017228666 -45.700674 1.56013e-15 5.7782426
0.82278265 -0.05 0.01801394 -45.156476 7.0689293e-16 5.668176
0.81655385 -0.05 0.018793625 -44.613213 -2.7362014e-16 5.5601361
0.81032436 -0.05 0.0195678 -44.073183 1.601415e-15 5.4531273
0.80409419 -0.05 0.020336474 -43.537266 1.5669328e-15 5.3480874
0.79786335 -0.05 0.021099679 -43.005949 -1.4315885e-15 5.2442691
0.79163182 -0.05 0.02185737 -42.478442 1.5856327e-15 5.1421098
0.78539966 -0.05 0.022609634 -41.955191 -7.8012083e-16 5.0416928
0.77916683 -0.05 0.023356434 -41.434444 -1.4484546e-15 4.9420503
0.77293334 -0.05 0.024097741 -40.914057 -7.8329817e-16 4.843973
0.76669921 -0.05 0.024833614 -40.391173 1.7188185e-15 4.7465548
0.76046443 -0.05 0.025564039 -39.863794 -1.1712867e-15 4.6494453
0.75422902 -0.05 0.026289006 -39.332073 -7.0858138e-16 4.5525771
0.74799298 -0.05 0.027008488 -38.797932 1.5570224e-17 4.4561334
0.74175631 -0.05 0.027722468 -38.265057 1.1592371e-15 4.3605939
0.735519 -0.05 0.028430933 -37.73708 -5.8801652e-16 4.2663528
0.72928107 -0.05 0.029133846 -37.215384 -6.6454418e-16 4.1736727
0.72304252 -0.05 0.029831241 -36.701361 5.8592014e-16 4.0829362
0.71680336 -0.05 0.030523147 -36.194717 -6.9108981e-16 3.9935193
0.71056358 -0.05 0.031209391 -35.692787 -8.2143424e-16 3.9051205
0.70432317 -0.05 0.031890022 -35.193837 -6.8021585e-16 3.8186899
0.69808215 -0.05 0.032565007 -34.693467 8.1428974e-16 3.7321418
0.69184051 -0.05 0.033234251 -34.187292 -5.2484327e-16 3.6464786
0.68559828 -0.05 0.033897813 -33.673544 -8.4924665e-16 3.5604092
0.67935542 -0.05 0.034555593 -33.153611 -1.4744574e-15 3.474299
0.67311196 -0.05 0.035207602 -32.634682 1.2529597e-16 3.3888126
0.66686789 -0.05 0.035853724 -32.122318 -4.2218221e-16 3.304143
0.66062321 -0.05 0.036493857 -31.619871 -1.4224815e-15 3.2215937
0.65437791 -0.05 0.037128087 -31.127549 -7.4274089e-16 3.1409254
0.64813202 -0.05 0.037756327 -30.643821 -5.6702188e-16 3.0614267
0.64188551 -0.05 0.038378412 -30.164531 1.2974396e-16 2.9832922
0.63563838 -0.05 0.038994309 -29.684257 -5.5524609e-17 2.9061538
0.62939065 -0.05 0.039604018 -29.195969 2.8313405e-16 2.8290752
0.62314231 -0.05 0.040207405 -28.693532 1.4133031e-16 2.7510053
0.61689334 -0.05 0.040804383 -28.179984 -4.1776615e-17 2.6726209
0.61064377 -0.05 0.04139495 -27.666711 -3.4082858e-16 2.5944774
0.60439359 -0.05 0.04197896 -27.161448 7.8819674e-16 2.517522
0.59814279 -0.05 0.042556342 -26.665768 -3.930473e-16 2.442343
0.59189137 -0.05 0.043127012 -26.17839 -5.0796236e-16 2.3685165
0.58563934 -0.05 0.04369088 -25.698687 1.7708824e-16 2.2964986
0.57938667 -0.05 0.044247828 -25.221413 -6.5912425e-16 2.2254704
0.57313339 -0.05 0.044797714 -24.737642 3.7607083e-16 2.1551013
0.5668795 -0.05 0.045340504 -24.236526 3.2000687e-16 2.0842698
0.56062498 -0.05 0.045876074 -23.711709 -8.1022775e-16 2.0118925
0.55436983 -0.05 0.046404266 -23.170356 8.5458571e-16 1.9385207
0.54811405 -0.05 0.046925006 -22.631643 -5.2021262e-17 1.8658404
0.54185765 -0.05 0.047438132 -22.104944 -6.1405749e-17 1.7946696
0.53560061 -0.05 0.047943505 -21.589893 2.1920843e-18 1.7255225
0.52934295 -0.05 0.048441054 -21.087029 4.2832199e-16 1.6582284
0.52308467 -0.05 0.048930608 -20.594348 3.0831622e-16 1.5929115
0.51682574 -0.05 0.049412023 -20.1064 -6.0729392e-16 1.5297084
0.51056618 -0.05 0.049885132 -19.611457 -1.4138628e-16 1.4673349
0.50430599 -0.05 0.050349797 -19.09345 4.6126272e-16 1.4044741
0.49804518 -0.05 0.050805896 -18.548219 7.7834846e-16 1.3399448
0.49178373 -0.05 0.051253229 -18.007157 -3.7026541e-16 1.2759943
0.48552164 -0.05 0.051691594 -17.476197 -4.9473875e-16 1.2135367
0.47925893 -0.05 0.052120867 -16.957391 -4.6169105e-16 1.1528196
0.47299558 -0.05 0.052540908 -16.451636 -1.1539594e-16 1.0932156
0.46673161 -0.05 0.052951468 -15.954613 -2.3281009e-16 1.0349132
0.46046702 -0.05 0.053352333 -15.466053 -6.7876826e-17 0.97844794
0.4542018 -0.05 0.053743338 -14.985799 -1.623602e-16 0.92378314
0.44793595 -0.05 0.054124302 -14.513817 -4.0416418e-16 0.87078615
0.4416695 -0.05 0.054494998 -14.04931 1.9540722e-16 0.81936049
0.43540243 -0.05 0.054855186 -13.591748 -7.7011879e-16 0.76948941
0.42913476 -0.05 0.055204655 -13.142326 2.4070832e-16 0.72140262
0.42286649 -0.05 0.055543207 -12.706507 2.8112314e-17 0.67512071
0.41659761 -0.05 0.055870591 -12.286853 1.6983764e-16 0.63065939
0.41032816 -0.05 0.056186531 -11.884394 1.4612385e-16 0.58808871
0.40405813 -0.05 0.0564908 -11.499968 -1.6157e-16 0.54751944
0.39778753 -0.05 0.056783115 -11.131136 6.89791e-17 0.50861462
0.39151638 -0.05 0.057063165 -10.781934 2.5882106e-16 0.47127609
0.38524467 -0.05 0.057330736 -10.453723 -1.6555413e-16 0.43586881
0.37897244 -0.05 0.057585586 -10.145099 -1.1579428e-16 0.40216846
0.37269969 -0.05 0.057827317 -9.851888 -1.7715129e-16 0.36977883
0.36642643 -0.05 0.058055609 -9.5713192 1.5867403e-16 0.33874984
0.36015269 -0.05 0.058270219 -9.3028588 3.7779196e-17 0.30881401
0.35387849 -0.05 0.058470811 -9.0453598 -3.8096707e-17 0.27989928
0.34760385 -0.05 0.058657027 -8.7984476 -6.1211387e-17 0.25190861
0.34132878 -0.05 0.058828481 -8.5610623 1.8417883e-16 0.22480678
0.33505332 -0.05 0.058984842 -8.3331083 1.4789298e-16 0.19859634
0.32877749 -0.05 0.059125719 -8.1140196 -1.4511353e-16 0.17309626
0.32250133 -0.05 0.059250688 -7.902957 2.6610684e-18 0.14839839
0.31622487 -0.05 0.05935936 -7.6999642 -8.8501324e-17 0.1244659
0.30994814 -0.05 0.059451318 -7.5062807 -7.5730515e-17 0.10143387
0.30367117 -0.05 0.059526128 -7.3082106 1.2455548e-17 0.078952073
