# yPlus  FACE_DATA 448
# x y z  yPlus
0.29662448 -0.05 -0.060421745 22.288378
0.2909876 -0.05 -0.060358091 22.565246
0.28543205 -0.05 -0.060280785 22.890984
0.27995669 -0.05 -0.060190028 23.205482
0.27456041 -0.05 -0.060086078 23.516637
0.26924211 -0.05 -0.059969222 23.822029
0.26400069 -0.05 -0.059839724 24.119343
0.25883509 -0.05 -0.059697823 24.410095
0.25374427 -0.05 -0.059543795 24.695245
0.24872717 -0.05 -0.05937788 24.976105
0.24378278 -0.05 -0.059200252 25.25039
0.23891008 -0.05 -0.059011181 25.518181
0.23410809 -0.05 -0.058810902 25.776617
0.22937581 -0.05 -0.058599669 26.022165
0.2247123 -0.05 -0.058377718 26.25501
0.22011659 -0.05 -0.058145213 26.474176
0.21558774 -0.05 -0.057902409 26.679137
0.21112484 -0.05 -0.057649524 26.876702
0.20672697 -0.05 -0.05738668 27.070997
0.20239323 -0.05 -0.057114137 27.268211
0.19812274 -0.05 -0.0568321 27.463304
0.19391463 -0.05 -0.056540794 27.648918
0.18976803 -0.05 -0.056240415 27.813767
0.1856821 -0.05 -0.055931042 27.9506
0.18165601 -0.05 -0.055612918 28.062811
0.17768895 -0.05 -0.05528623 28.16929
0.17378009 -0.05 -0.054951131 28.295594
0.16992863 -0.05 -0.054607822 28.451803
0.1661338 -0.05 -0.054256459 28.626167
0.16239482 -0.05 -0.053897172 28.818124
0.15871093 -0.05 -0.053530088 29.029492
0.15508137 -0.05 -0.053155422 29.269969
0.15150541 -0.05 -0.052773284 29.543367
0.14798232 -0.05 -0.05238381 29.839093
0.14451139 -0.05 -0.051987142 30.144309
0.1410919 -0.05 -0.05158337 30.44834
0.13772318 -0.05 -0.051172645 30.746023
0.13440453 -0.05 -0.050755077 31.034937
0.13113527 -0.05 -0.050330831 31.312855
0.12791474 -0.05 -0.049900009 31.580086
0.1247423 -0.05 -0.049462632 31.834793
0.12161731 -0.05 -0.049018879 32.077275
0.11853911 -0.05 -0.048568863 32.308477
0.11550712 -0.05 -0.048112596 32.527188
0.11252072 -0.05 -0.047650147 32.733422
0.10957931 -0.05 -0.04718164 32.92729
0.1066823 -0.05 -0.046707103 33.109856
0.10382912 -0.05 -0.046226621 33.280546
0.10101918 -0.05 -0.045740348 33.441871
0.098251934 -0.05 -0.045248216 33.593386
0.095526852 -0.05 -0.044750277 33.7334
0.092843376 -0.05 -0.044246666 33.864363
0.090201005 -0.05 -0.043737293 33.985938
0.087599216 -0.05 -0.043222219 34.096308
0.085037499 -0.05 -0.042701502 34.199047
0.08251536 -0.05 -0.042175164 34.292572
0.08003231 -0.05 -0.04164324 34.379249
0.077587902 -0.05 -0.041105619 34.454054
0.07518168 -0.05 -0.040562289 34.517076
0.072813176 -0.05 -0.040013316 34.568679
0.070481944 -0.05 -0.039458712 34.610533
0.068187581 -0.05 -0.038898358 34.641615
0.065929676 -0.05 -0.03833221 34.660382
0.063707819 -0.05 -0.037760256 34.668404
0.061521633 -0.05 -0.0371824 34.665669
0.059370752 -0.05 -0.036598552 34.651382
0.057254812 -0.05 -0.036008645 34.625236
0.055173473 -0.05 -0.035412571 34.587756
0.053126388 -0.05 -0.03481029 34.538191
0.051113267 -0.05 -0.034201611 34.479505
0.049133821 -0.05 -0.033586375 34.406174
0.047187749 -0.05 -0.032964515 34.322719
0.0452748 -0.05 -0.032335842 34.227234
0.04339474 -0.05 -0.031700166 34.12112
0.041547382 -0.05 -0.031057209 34.002884
0.039732527 -0.05 -0.030406772 33.87116
0.037949982 -0.05 -0.029748705 33.727317
0.036199616 -0.05 -0.029082718 33.572888
0.034481334 -0.05 -0.028408503 33.405023
0.032795065 -0.05 -0.027725743 33.224962
0.031140761 -0.05 -0.027034123 33.030744
0.029518422 -0.05 -0.02633329 32.826524
0.027928109 -0.05 -0.025622812 32.608221
0.026369898 -0.05 -0.02490231 32.375229
0.024843946 -0.05 -0.024171299 32.129735
0.023350469 -0.05 -0.023429266 31.868602
0.021889737 -0.05 -0.022675706 31.592713
0.02046214 -0.05 -0.021909997 31.30089
0.019068095 -0.05 -0.021131573 30.988313
0.017708187 -0.05 -0.020339716 30.660191
0.016383088 -0.05 -0.019533679 30.306835
0.01509356 -0.05 -0.018712728 29.932925
0.013840558 -0.05 -0.01787603 29.532006
0.01262522 -0.05 -0.01702274 29.101837
0.011448879 -0.05 -0.016151981 28.63109
0.010313097 -0.05 -0.015262777 28.119409
0.0092196347 -0.05 -0.014354094 27.559647
0.0081705658 -0.05 -0.013425103 26.942973
0.0071683889 -0.05 -0.01247499 26.251747
0.0062158475 -0.05 -0.011502697 25.469029
0.0053160069 -0.05 -0.01050753 24.562052
0.0044726013 -0.05 -0.0094893598 23.509769
0.0036895043 -0.05 -0.0084478489 22.283365
0.0029708017 -0.05 -0.0073832144 20.832769
0.0023212193 -0.05 -0.0062968209 19.130045
0.001745317 -0.05 -0.005190185 17.124662
0.0012474118 -0.05 -0.004065846 14.73995
0.00083139188 -0.05 -0.0029278774 11.828288
0.00050029606 -0.05 -0.0017807084 8.7180433
0.00025582717 -0.05 -0.00062965999 5.1505552
9.8012098e-05 -0.05 0.00051920926 4.3794176
2.5297657e-05 -0.05 0.0016598483 8.1779128
0.99686003 -0.05 -0.007104015 3.4654354
0.99063913 -0.05 -0.0079444833 0.78412797
0.98441729 -0.05 -0.0087779554 0.85310635
0.97819453 -0.05 -0.0096044586 0.40526023
0.97197086 -0.05 -0.010424099 0.59248809
0.96574631 -0.05 -0.011237035 0.38408194
0.95952088 -0.05 -0.01204325 0.52114263
0.9532946 -0.05 -0.012842808 0.48610858
0.9470675 -0.05 -0.013635864 0.51972397
0.94083956 -0.05 -0.014422502 0.52277069
0.93461083 -0.05 -0.015202727 0.53799188
0.92838131 -0.05 -0.015976599 0.54711263
0.922151 -0.05 -0.016744196 0.55749995
0.91591992 -0.05 -0.017505553 0.56705818
0.90968812 -0.05 -0.01826082 0.57773511
0.90345557 -0.05 -0.019009995 0.589254
0.8972223 -0.05 -0.01975311 0.59966345
0.89098833 -0.05 -0.020490301 0.60734709
0.88475366 -0.05 -0.021221581 0.61732457
0.87851829 -0.05 -0.021946895 0.6243479
0.87228224 -0.05 -0.022666379 0.63323912
0.86604554 -0.05 -0.023380102 0.64075162
0.85980817 -0.05 -0.024088036 0.65554709
0.85357016 -0.05 -0.024790267 0.67829808
0.84733152 -0.05 -0.025486857 0.7112994
0.84109225 -0.05 -0.026177793 0.86052344
0.83485236 -0.05 -0.026863039 0.90593485
0.82861185 -0.05 -0.02754277 0.87002272
0.82237075 -0.05 -0.028216948 0.90105996
0.81612904 -0.05 -0.028885524 0.84243166
0.80988675 -0.05 -0.029548578 0.87886747
0.80364387 -0.05 -0.03020612 0.83757671
0.79740042 -0.05 -0.030858183 0.83624052
0.79115639 -0.05 -0.03150472 0.81158887
0.7849118 -0.05 -0.032145819 0.76836538
0.77866665 -0.05 -0.032781444 0.70283986
0.77242095 -0.05 -0.033411565 0.60544907
0.7661747 -0.05 -0.034036241 0.45727858
0.75992789 -0.05 -0.034655458 0.16444346
0.75368056 -0.05 -0.035269208 0.44027751
0.74743269 -0.05 -0.035877461 0.6016947
0.74118428 -0.05 -0.036480203 0.74553294
0.73493534 -0.05 -0.037077419 0.88141051
0.72868587 -0.05 -0.037669073 1.0132994
0.72243589 -0.05 -0.038255198 1.1441185
0.71618539 -0.05 -0.038835825 1.2759574
0.70993436 -0.05 -0.039410779 1.4071475
0.70368282 -0.05 -0.039980109 1.5404951
0.69743077 -0.05 -0.040543784 1.677048
0.6911782 -0.05 -0.041101709 1.8168078
0.68492513 -0.05 -0.041653942 1.963208
0.67867154 -0.05 -0.042200382 2.1149616
0.67241746 -0.05 -0.042741041 2.2730597
0.66616287 -0.05 -0.043275802 2.4358439
0.65990777 -0.05 -0.043804566 2.6012432
0.65365217 -0.05 -0.044327417 2.7710041
0.64739607 -0.05 -0.044844267 2.9454644
0.64113946 -0.05 -0.045354952 3.1236513
0.63488235 -0.05 -0.04585944 3.3051586
0.62862475 -0.05 -0.04635773 3.4904145
0.62236665 -0.05 -0.046849689 3.6788507
0.61610805 -0.05 -0.047335227 3.8707672
0.60984894 -0.05 -0.047814344 4.0680518
0.60358934 -0.05 -0.048286897 4.2787155
0.59732925 -0.05 -0.04875281 4.4998778
0.59106865 -0.05 -0.049212001 4.7244648
0.58480756 -0.05 -0.04966438 4.9528167
0.57854598 -0.05 -0.050109831 5.1859972
0.5722839 -0.05 -0.050548208 5.422848
0.56602132 -0.05 -0.050979479 5.66382
0.55975824 -0.05 -0.051403522 5.9088024
0.55349468 -0.05 -0.051820174 6.1580024
0.54723062 -0.05 -0.052229366 6.4126928
0.54096606 -0.05 -0.052630934 6.6725639
0.53470102 -0.05 -0.053024739 6.9362614
0.52843548 -0.05 -0.05341071 7.2050713
0.52216946 -0.05 -0.053788675 7.4792954
0.51590296 -0.05 -0.054158492 7.7604987
0.50963596 -0.05 -0.054519993 8.0479391
0.50336848 -0.05 -0.05487304 8.3401077
0.49710053 -0.05 -0.05521751 8.637962
0.4908321 -0.05 -0.055553205 8.9421237
0.4845632 -0.05 -0.055879923 9.255382
0.47829384 -0.05 -0.056197538 9.5914961
0.472024 -0.05 -0.056505912 9.9734599
0.46575371 -0.05 -0.056804796 10.37002
0.45948296 -0.05 -0.057093973 10.763574
0.45321178 -0.05 -0.057373283 11.156972
0.44694014 -0.05 -0.057642542 11.552537
0.44066808 -0.05 -0.057901523 11.951188
0.43439559 -0.05 -0.058149987 12.353469
0.42812268 -0.05 -0.058387723 12.761194
0.42184936 -0.05 -0.058614532 13.173727
0.41557566 -0.05 -0.058830166 13.590853
0.40930157 -0.05 -0.059034346 14.012993
0.40302712 -0.05 -0.059226847 14.440634
0.3967523 -0.05 -0.059407386 14.872817
0.39047716 -0.05 -0.059575652 15.308045
0.38420168 -0.05 -0.05973143 15.748132
0.37792591 -0.05 -0.059874481 16.193828
0.37164984 -0.05 -0.060004406 16.643501
0.36537351 -0.05 -0.060120884 17.095628
0.35909694 -0.05 -0.060223674 17.552356
0.35282017 -0.05 -0.060312439 18.013534
0.3465432 -0.05 -0.060386824 18.478651
0.34026608 -0.05 -0.060446442 18.946046
0.33398882 -0.05 -0.060490961 19.416271
0.32771149 -0.05 -0.060519994 19.889354
0.3214341 -0.05 -0.060533115 20.364908
0.31515669 -0.05 -0.060529934 20.84073
0.30887931 -0.05 -0.060510038 21.320635
0.30260201 -0.05 -0.060472992 21.85382
0.29769367 -0.05 0.059581396 22.952186
0.29205655 -0.05 0.05961819 22.639577
0.28650051 -0.05 0.059639885 22.304714
0.28102441 -0.05 0.059646703 21.982569
0.27562713 -0.05 0.05963892 21.67455
0.27030759 -0.05 0.059616845 21.380013
0.26506469 -0.05 0.05958076 21.099284
0.25989738 -0.05 0.059530922 20.831769
0.25480463 -0.05 0.059467627 20.578016
0.24978537 -0.05 0.059391133 20.337238
0.24483859 -0.05 0.059301632 20.107465
0.2399633 -0.05 0.059199414 19.887427
0.2351585 -0.05 0.059084729 19.675517
0.23042323 -0.05 0.058957849 19.471041
0.22575649 -0.05 0.058819028 19.275597
0.22115737 -0.05 0.058668446 19.088117
0.21662491 -0.05 0.058506376 18.908826
0.21215821 -0.05 0.058333051 18.73813
0.20775635 -0.05 0.058148611 18.574422
0.20341844 -0.05 0.057953329 18.418186
0.19914361 -0.05 0.057747429 18.269549
0.19493098 -0.05 0.057531149 18.128391
0.19077969 -0.05 0.057304703 17.995156
0.18668889 -0.05 0.057068181 17.868119
0.18265778 -0.05 0.056821845 17.747683
0.17868553 -0.05 0.056565894 17.634714
0.17477131 -0.05 0.056300496 17.527469
0.17091435 -0.05 0.056025868 17.427073
0.16711386 -0.05 0.055742178 17.332433
0.16336907 -0.05 0.055449569 17.243848
0.15967923 -0.05 0.055148182 17.16005
0.15604356 -0.05 0.054838247 17.08204
0.15246136 -0.05 0.054519887 17.00978
0.1489319 -0.05 0.054193249 16.942333
0.14545444 -0.05 0.05385849 16.880995
0.14202831 -0.05 0.05351571 16.824565
0.13865279 -0.05 0.053165074 16.77315
0.13532723 -0.05 0.052806705 16.726502
0.13205093 -0.05 0.052440777 16.68446
0.12882324 -0.05 0.052067408 16.647702
0.12564352 -0.05 0.051686627 16.613879
0.12251111 -0.05 0.051298626 16.583847
0.11942538 -0.05 0.050903529 16.559404
0.11638575 -0.05 0.050501359 16.538898
0.11339158 -0.05 0.050092195 16.522181
0.11044228 -0.05 0.049676171 16.509598
0.10753728 -0.05 0.049253328 16.501603
0.10467599 -0.05 0.048823762 16.496198
0.10185783 -0.05 0.048387633 16.495768
0.099082258 -0.05 0.047944887 16.49806
0.096348738 -0.05 0.047495582 16.501583
0.093656714 -0.05 0.047039864 16.509925
0.091005687 -0.05 0.046577655 16.522326
0.088395134 -0.05 0.046109021 16.536378
0.085824545 -0.05 0.045634032 16.555076
0.083293428 -0.05 0.045152717 16.575034
0.080801294 -0.05 0.04466512 16.599882
0.078347696 -0.05 0.044171141 16.626829
0.075932174 -0.05 0.043670771 16.656748
0.073554263 -0.05 0.043164087 16.690617
0.07121352 -0.05 0.042651108 16.728697
0.068909538 -0.05 0.042131725 16.767375
0.066641903 -0.05 0.041605897 16.804796
0.064410207 -0.05 0.041073624 16.844217
0.062214073 -0.05 0.040534814 16.886819
0.06005313 -0.05 0.039989383 16.934418
0.057927015 -0.05 0.039437271 16.987042
0.055835385 -0.05 0.038878377 17.043072
0.053777894 -0.05 0.038312667 17.10012
0.051754246 -0.05 0.037739954 17.159975
0.049764153 -0.05 0.037160087 17.217605
0.04780731 -0.05 0.036573 17.281519
0.045883462 -0.05 0.035978511 17.348736
0.043992374 -0.05 0.035376435 17.418639
0.042133852 -0.05 0.034766496 17.487733
0.040307697 -0.05 0.034148501 17.557689
0.038513709 -0.05 0.033522299 17.634529
0.036751756 -0.05 0.032887606 17.723681
0.035021733 -0.05 0.032244114 17.819993
0.033323566 -0.05 0.031591509 17.921194
0.031657202 -0.05 0.030929475 18.018683
0.030022632 -0.05 0.03025766 18.11583
0.028419913 -0.05 0.029575631 18.215498
0.026849111 -0.05 0.028883007 18.323739
0.025310375 -0.05 0.028179302 18.427241
0.023803914 -0.05 0.027463998 18.519787
0.022329986 -0.05 0.026736585 18.62473
0.020888974 -0.05 0.025996434 18.753309
0.01948128 -0.05 0.025242973 18.884217
0.018107479 -0.05 0.024475473 18.974558
0.016768227 -0.05 0.023693175 18.972489
0.015464276 -0.05 0.022895331 18.905342
0.014196565 -0.05 0.022081092 18.818502
0.012966217 -0.05 0.021249592 18.810352
0.011774547 -0.05 0.020399931 18.973046
0.010623101 -0.05 0.019531105 19.312658
0.0095136212 -0.05 0.018642051 19.852891
0.0084481662 -0.05 0.017731899 20.574803
0.0074292192 -0.05 0.016799794 21.527023
0.0064595048 -0.05 0.015844628 22.533273
0.0055420751 -0.05 0.014865652 23.400717
0.0046806616 -0.05 0.013862672 24.033839
0.0038791313 -0.05 0.012835279 24.396385
0.003141573 -0.05 0.01178362 24.454417
0.0024727363 -0.05 0.010708973 24.162874
0.0018772074 -0.05 0.0096127742 23.537056
0.0013593477 -0.05 0.0084974853 22.550434
0.00092311747 -0.05 0.0073671102 21.147533
0.00057163386 -0.05 0.0062260226 19.347907
0.00030669436 -0.05 0.0050795129 17.135158
0.00012843374 -0.05 0.0039336381 14.467915
3.540688e-05 -0.05 0.0027944757 11.2884
0.99686803 -0.05 -0.0062046983 71.745732
0.99066311 -0.05 -0.0052535195 65.788679
0.98445711 -0.05 -0.0043093187 65.76543
0.97825006 -0.05 -0.0033720694 65.515778
0.97204199 -0.05 -0.0024416655 65.297909
0.9658329 -0.05 -0.0015179488 65.050582
0.95962284 -0.05 -0.00060093655 64.798701
0.95341179 -0.05 0.0003094346 64.535535
0.94719979 -0.05 0.0012133193 64.26635
0.94098687 -0.05 0.0021108017 63.989721
0.93477302 -0.05 0.0030018869 63.706891
0.92855827 -0.05 0.0038866347 63.416963
0.92234263 -0.05 0.0047651216 63.121496
0.91612612 -0.05 0.0056373825 62.820027
0.90990876 -0.05 0.0065035682 62.514401
0.90369055 -0.05 0.0073636763 62.205272
0.89747151 -0.05 0.0082177379 61.893122
0.89125167 -0.05 0.009065889 61.578608
0.88503101 -0.05 0.0099081433 61.262698
0.87880956 -0.05 0.010744444 60.944202
0.87258733 -0.05 0.011574928 60.623394
0.86636432 -0.05 0.012399663 60.300642
0.86014056 -0.05 0.013218623 59.974939
0.85391606 -0.05 0.014031891 59.645711
0.84769081 -0.05 0.014839531 59.312719
0.84146485 -0.05 0.015641529 58.975254
0.83523816 -0.05 0.016437849 58.633161
0.82901075 -0.05 0.017228666 58.287185
0.82278265 -0.05 0.01801394 57.938852
0.81655385 -0.05 0.018793625 57.588479
0.81032436 -0.05 0.0195678 57.238357
0.80409419 -0.05 0.020336474 56.888494
0.79786335 -0.05 0.021099679 56.539837
0.79163182 -0.05 0.02185737 56.191677
0.78539966 -0.05 0.022609634 55.843959
0.77916683 -0.05 0.023356434 55.496024
0.77293334 -0.05 0.024097741 55.145808
0.76669921 -0.05 0.024833614 54.791901
0.76046443 -0.05 0.025564039 54.432733
0.75422902 -0.05 0.026289006 54.067921
0.74799298 -0.05 0.027008488 53.69942
0.74175631 -0.05 0.027722468 53.328939
0.735519 -0.05 0.028430933 52.95912
0.72928107 -0.05 0.029133846 52.591309
0.72304252 -0.05 0.029831241 52.226336
0.71680336 -0.05 0.030523147 51.864007
0.71056358 -0.05 0.031209391 51.502889
0.70432317 -0.05 0.031890022 51.141125
0.69808215 -0.05 0.032565007 50.776329
0.69184051 -0.05 0.033234251 50.404301
0.68559828 -0.05 0.033897813 50.024021
0.67935542 -0.05 0.034555593 49.636066
0.67311196 -0.05 0.035207602 49.24563
0.66686789 -0.05 0.035853724 48.857334
0.66062321 -0.05 0.036493857 48.473377
0.65437791 -0.05 0.037128087 48.09427
0.64813202 -0.05 0.037756327 47.718997
0.64188551 -0.05 0.038378412 47.344272
0.63563838 -0.05 0.038994309 46.965813
0.62939065 -0.05 0.039604018 46.577898
0.62314231 -0.05 0.040207405 46.175556
0.61689334 -0.05 0.040804383 45.760365
0.61064377 -0.05 0.04139495 45.341674
0.60439359 -0.05 0.04197896 44.925617
0.59814279 -0.05 0.042556342 44.51367
0.59189137 -0.05 0.043127012 44.104946
0.58563934 -0.05 0.04369088 43.699087
0.57938667 -0.05 0.044247828 43.291741
0.57313339 -0.05 0.044797714 42.874827
0.5668795 -0.05 0.045340504 42.438586
0.56062498 -0.05 0.045876074 41.976749
0.55436983 -0.05 0.046404266 41.494903
0.54811405 -0.05 0.046925006 41.009824
0.54185765 -0.05 0.047438132 40.52995
0.53560061 -0.05 0.047943505 40.055155
0.52934295 -0.05 0.048441054 39.586045
0.52308467 -0.05 0.048930608 39.121061
0.51682574 -0.05 0.049412023 38.655127
0.51056618 -0.05 0.049885132 38.176899
0.50430599 -0.05 0.050349797 37.669776
0.49804518 -0.05 0.050805896 37.128566
0.49178373 -0.05 0.051253229 36.583419
0.48552164 -0.05 0.051691594 36.040562
0.47925893 -0.05 0.052120867 35.501987
0.47299558 -0.05 0.052540908 34.969067
0.46673161 -0.05 0.052951468 34.437268
0.46046702 -0.05 0.053352333 33.906517
0.4542018 -0.05 0.053743338 33.376414
0.44793595 -0.05 0.054124302 32.847175
0.4416695 -0.05 0.054494998 32.317672
0.43540243 -0.05 0.054855186 31.787648
0.42913476 -0.05 0.055204655 31.258154
0.42286649 -0.05 0.055543207 30.736153
0.41659761 -0.05 0.055870591 30.225039
0.41032816 -0.05 0.056186531 29.726702
0.40405813 -0.05 0.0564908 29.242365
0.39778753 -0.05 0.056783115 28.770282
0.39151638 -0.05 0.057063165 28.315867
0.38524467 -0.05 0.057330736 27.882286
0.37897244 -0.05 0.057585586 27.468141
0.37269969 -0.05 0.057827317 27.069043
0.36642643 -0.05 0.058055609 26.681187
0.36015269 -0.05 0.058270219 26.304826
0.35387849 -0.05 0.058470811 25.938201
0.34760385 -0.05 0.058657027 25.582086
0.34132878 -0.05 0.058828481 25.234653
0.33505332 -0.05 0.058984842 24.896614
0.32877749 -0.05 0.059125719 24.567058
0.32250133 -0.05 0.059250688 24.245507
0.31622487 -0.05 0.05935936 23.932074
0.30994814 -0.05 0.059451318 23.629223
0.30367117 -0.05 0.059526128 23.288148
