# p  FACE_DATA 448
# x y z  p
0.29778657 -0.05 -0.059506912 99390.339
0.29214952 -0.05 -0.059552501 99384.052
0.28659351 -0.05 -0.059582865 99377.895
0.28111742 -0.05 -0.059598226 99371.859
0.27572014 -0.05 -0.059598864 99365.907
0.27040058 -0.05 -0.059585088 99360.07
0.26515763 -0.05 -0.059557184 99354.343
0.25999026 -0.05 -0.059515407 99348.772
0.2548974 -0.05 -0.059460058 99343.212
0.24987803 -0.05 -0.059391395 99337.828
0.24493112 -0.05 -0.059309613 99332.559
0.24005568 -0.05 -0.059215001 99327.4
0.23525071 -0.05 -0.059107812 99322.321
0.23051523 -0.05 -0.05898832 99317.303
0.22584828 -0.05 -0.05885678 99312.41
0.22124894 -0.05 -0.058713374 99307.671
0.21671624 -0.05 -0.058558376 99302.949
0.21224926 -0.05 -0.05839202 99298.391
0.20784712 -0.05 -0.058214447 99293.975
0.20350892 -0.05 -0.058025935 99289.629
0.19923377 -0.05 -0.057826704 99285.432
0.19502081 -0.05 -0.057616997 99281.25
0.19086916 -0.05 -0.057397027 99277.221
0.18677801 -0.05 -0.057166888 99273.359
0.18274651 -0.05 -0.056926842 99269.503
0.17877386 -0.05 -0.056677089 99265.838
0.17485924 -0.05 -0.056417798 99262.233
0.17100186 -0.05 -0.056149188 99258.761
0.16720093 -0.05 -0.055871427 99255.348
0.16345569 -0.05 -0.055584662 99252.118
0.15976537 -0.05 -0.055289032 99249.003
0.15612923 -0.05 -0.05498477 99245.966
0.15254654 -0.05 -0.054671999 99243.116
0.14901657 -0.05 -0.054350868 99240.281
0.1455386 -0.05 -0.054021535 99237.582
0.14211193 -0.05 -0.053684101 99235.004
0.13873588 -0.05 -0.053338732 99232.606
0.13540976 -0.05 -0.052985551 99230.335
0.13213289 -0.05 -0.052624736 99228.075
0.12890462 -0.05 -0.052256402 99226.008
0.12572431 -0.05 -0.051880583 99224.152
0.1225913 -0.05 -0.051497469 99222.302
0.11950496 -0.05 -0.051107187 99220.586
0.11646469 -0.05 -0.05070976 99219.02
0.1134699 -0.05 -0.050305267 99217.638
0.11051996 -0.05 -0.049893847 99216.298
0.1076143 -0.05 -0.049475536 99215.261
0.10475234 -0.05 -0.049050435 99214.27
0.1019335 -0.05 -0.048618703 99213.443
0.099157244 -0.05 -0.048180288 99212.906
0.096423027 -0.05 -0.047735248 99212.389
0.093730296 -0.05 -0.047283731 99211.937
0.091078549 -0.05 -0.046825658 99211.806
0.088467268 -0.05 -0.046361099 99211.742
0.085895942 -0.05 -0.04589012 99212.041
0.083364077 -0.05 -0.045412755 99212.4
0.080871185 -0.05 -0.044929047 99213.052
0.078416819 -0.05 -0.044438896 99213.948
0.076000521 -0.05 -0.043942296 99215.047
0.073621823 -0.05 -0.043439321 99216.222
0.071280281 -0.05 -0.042929996 99217.661
0.068975491 -0.05 -0.042414207 99219.501
0.066707039 -0.05 -0.041891919 99221.671
0.064474516 -0.05 -0.041363128 99224.068
0.062277543 -0.05 -0.040827744 99226.687
0.060115751 -0.05 -0.040285686 99229.517
0.057988777 -0.05 -0.039736891 99232.797
0.055896279 -0.05 -0.039181262 99236.589
0.053837907 -0.05 -0.038618763 99240.804
0.051813368 -0.05 -0.038049208 99245.664
0.049822372 -0.05 -0.037472446 99250.647
0.047864616 -0.05 -0.036888413 99255.931
0.045939844 -0.05 -0.036296927 99261.721
0.044047819 -0.05 -0.035697802 99268.365
0.042188348 -0.05 -0.035090763 99275.994
0.04036123 -0.05 -0.034475618 99284.148
0.038566267 -0.05 -0.033852216 99292.697
0.036803326 -0.05 -0.033220273 99302.059
0.035072301 -0.05 -0.032579481 99312.582
0.033373118 -0.05 -0.031929526 99324.488
0.031705723 -0.05 -0.031270092 99337.539
0.030070108 -0.05 -0.030600828 99351.326
0.028466326 -0.05 -0.0299213 99365.741
0.026894445 -0.05 -0.029231128 99381.935
0.025354614 -0.05 -0.028529824 99400.662
0.023847038 -0.05 -0.027816871 99421.506
0.022371978 -0.05 -0.027091759 99443.921
0.020929812 -0.05 -0.026353858 99467.897
0.019520945 -0.05 -0.025602593 99494.919
0.018145948 -0.05 -0.024837238 99525.61
0.016805477 -0.05 -0.02405703 99558.567
0.015500283 -0.05 -0.023261222 99594.226
0.014231303 -0.05 -0.022448961 99632.656
0.012999659 -0.05 -0.021619382 99675.151
0.011806665 -0.05 -0.020771582 99725.163
0.010653865 -0.05 -0.019904553 99782.864
0.0095429991 -0.05 -0.019017231 99848.973
0.0084761252 -0.05 -0.018108742 99925.919
0.0074557252 -0.05 -0.017178228 100011.96
0.0064845217 -0.05 -0.016224576 100104.51
0.0055655658 -0.05 -0.015247033 100204.42
0.0047025884 -0.05 -0.014245397 100313.77
0.0038994562 -0.05 -0.013219257 100431.75
0.0031602581 -0.05 -0.01216875 100560.7
0.0024897455 -0.05 -0.011095148 100697.37
0.001892507 -0.05 -0.0099998792 100839.36
0.0013729079 -0.05 -0.0088853998 100982.28
0.00093491466 -0.05 -0.0077557067 101121.18
0.00058165118 -0.05 -0.0066151689 101251.27
0.00031492323 -0.05 -0.005469074 101365.3
0.00013487505 -0.05 -0.0043234786 101457.3
4.0071002e-05 -0.05 -0.0031844628 101526.63
0.99685745 -0.05 0.0073699415 100212.14
0.99065401 -0.05 0.006409083 100140.65
0.98444949 -0.05 0.0054552008 100117.73
0.97824391 -0.05 0.0045082685 100096.41
0.9720373 -0.05 0.00356818 100080.88
0.96582967 -0.05 0.0026347772 100066.28
0.95962103 -0.05 0.0017080772 100053.63
0.95341141 -0.05 0.00078801678 100041.77
0.94720084 -0.05 -0.00012555864 100030.99
0.94098932 -0.05 -0.0010327333 100020.61
0.93477688 -0.05 -0.0019335122 100011.06
0.92856352 -0.05 -0.002827955 100001.78
0.92234925 -0.05 -0.0037161384 99993.148
0.91613411 -0.05 -0.0045980971 99984.781
0.90991811 -0.05 -0.0054739821 99976.658
0.90370125 -0.05 -0.0063437905 99968.898
0.89748355 -0.05 -0.007207554 99961.476
0.89126503 -0.05 -0.0080654081 99954.111
0.8850457 -0.05 -0.0089173665 99947.027
0.87882556 -0.05 -0.0097633727 99940.246
0.87260462 -0.05 -0.010603564 99933.488
0.86638292 -0.05 -0.011438007 99926.931
0.86016044 -0.05 -0.012266675 99920.556
0.85393721 -0.05 -0.013089654 99914.295
0.84771324 -0.05 -0.013907006 99908.14
0.84148854 -0.05 -0.014718716 99902.087
0.83526309 -0.05 -0.015524751 99896.278
0.82903693 -0.05 -0.016325283 99890.238
0.82281006 -0.05 -0.017120273 99884.562
0.81658248 -0.05 -0.017909675 99878.776
0.81035421 -0.05 -0.018693567 99873.161
0.80412524 -0.05 -0.019471961 99867.487
0.79789559 -0.05 -0.020244886 99861.979
0.79166527 -0.05 -0.021012298 99856.535
0.78543428 -0.05 -0.021774285 99851.011
0.77920262 -0.05 -0.022530809 99845.653
0.7729703 -0.05 -0.02328184 99840.325
0.76673732 -0.05 -0.024027438 99835.002
0.7605037 -0.05 -0.02476759 99829.699
0.75426943 -0.05 -0.025502284 99824.396
0.74803452 -0.05 -0.026231495 99819.185
0.74179896 -0.05 -0.026955205 99813.93
0.73556276 -0.05 -0.0276734 99808.695
0.72932594 -0.05 -0.028386045 99803.521
0.72308849 -0.05 -0.029093171 99798.295
0.71685042 -0.05 -0.029794811 99792.979
0.7106117 -0.05 -0.030490789 99787.889
0.70437237 -0.05 -0.031181155 99782.531
0.69813241 -0.05 -0.031865876 99777.42
0.69189183 -0.05 -0.032544859 99772.211
0.68565063 -0.05 -0.033218158 99767.058
0.67940881 -0.05 -0.033885678 99761.889
0.67316637 -0.05 -0.034547427 99756.604
0.66692332 -0.05 -0.035203289 99751.426
0.66067964 -0.05 -0.035853165 99746.219
0.65443535 -0.05 -0.036497138 99740.858
0.64819044 -0.05 -0.037135122 99735.56
0.64194491 -0.05 -0.037766952 99730.281
0.63569875 -0.05 -0.038392595 99724.983
0.62945198 -0.05 -0.039012052 99719.645
0.62320458 -0.05 -0.039625186 99714.419
0.61695656 -0.05 -0.040231913 99709.085
0.61070793 -0.05 -0.040832228 99703.711
0.60445866 -0.05 -0.04142599 99698.343
0.59820877 -0.05 -0.042013124 99692.887
0.59195824 -0.05 -0.042593547 99687.447
0.58570709 -0.05 -0.043167168 99681.902
0.57945531 -0.05 -0.043733871 99676.39
0.57320289 -0.05 -0.044293512 99670.945
0.56694986 -0.05 -0.044846058 99665.451
0.56069618 -0.05 -0.045391387 99659.953
0.55444186 -0.05 -0.045929337 99654.412
0.54818691 -0.05 -0.046459837 99648.778
0.54193131 -0.05 -0.046982723 99643.114
0.53567507 -0.05 -0.047497857 99637.359
0.5294182 -0.05 -0.04800517 99631.544
0.52316067 -0.05 -0.048504486 99625.718
0.51690251 -0.05 -0.048995666 99619.846
0.51064369 -0.05 -0.04947854 99614.065
0.50438423 -0.05 -0.049952972 99608.219
0.49812414 -0.05 -0.050418838 99602.318
0.4918634 -0.05 -0.05087594 99596.345
0.485602 -0.05 -0.051324074 99590.363
0.47933996 -0.05 -0.051763117 99584.222
0.47307729 -0.05 -0.05219293 99578.037
0.46681396 -0.05 -0.052613263 99571.838
0.46055 -0.05 -0.053023901 99565.621
0.4542854 -0.05 -0.053424681 99559.323
0.44802016 -0.05 -0.05381542 99552.948
0.44175429 -0.05 -0.054195892 99546.447
0.4354878 -0.05 -0.054565858 99540.008
0.42922067 -0.05 -0.054925105 99533.547
0.42295293 -0.05 -0.055273436 99526.989
0.41668458 -0.05 -0.0556106 99520.38
0.41041563 -0.05 -0.055936322 99513.731
0.40414608 -0.05 -0.056250373 99506.959
0.39787595 -0.05 -0.056552471 99500.216
0.39160523 -0.05 -0.056842305 99493.444
0.38533395 -0.05 -0.05711966 99486.619
0.37906213 -0.05 -0.057384295 99479.716
0.37278976 -0.05 -0.057635814 99472.921
0.36651687 -0.05 -0.057873892 99466.045
0.36024347 -0.05 -0.05809829 99459.153
0.35396959 -0.05 -0.05830867 99452.223
0.34769524 -0.05 -0.058504675 99445.36
0.34142045 -0.05 -0.058685919 99438.463
0.33514524 -0.05 -0.058852071 99431.506
0.32886965 -0.05 -0.05900274 99424.592
0.32259369 -0.05 -0.059137501 99417.789
0.3163174 -0.05 -0.059255964 99410.894
0.31004082 -0.05 -0.059357715 99403.664
0.30376398 -0.05 -0.059442318 99396.59
0.29653015 -0.05 0.060494414 99572.313
0.29089338 -0.05 0.060421965 99567.237
0.28533795 -0.05 0.060335991 99562.582
0.27986274 -0.05 0.060236693 99558.037
0.27446664 -0.05 0.060124323 99553.593
0.26914852 -0.05 0.05999917 99549.398
0.2639073 -0.05 0.059861495 99545.292
0.25874194 -0.05 0.059711534 99541.429
0.25365137 -0.05 0.059549565 99537.534
0.24863453 -0.05 0.059375821 99533.813
0.24369042 -0.05 0.05919048 99530.201
0.23881802 -0.05 0.058993808 99526.859
0.23401635 -0.05 0.058786036 99523.71
0.22928442 -0.05 0.058567421 99520.656
0.22462125 -0.05 0.058338194 99517.59
0.22002591 -0.05 0.058098519 99514.719
0.21549744 -0.05 0.057848649 99511.897
0.21103493 -0.05 0.057588801 99509.313
0.20663748 -0.05 0.057319096 99506.926
0.20230418 -0.05 0.057039792 99504.653
0.19803414 -0.05 0.056751093 99502.533
0.19382648 -0.05 0.056453221 99500.467
0.18968035 -0.05 0.056146374 99498.659
0.18559492 -0.05 0.055830626 99497.109
0.18156933 -0.05 0.055506221 99495.457
0.17760278 -0.05 0.055173344 99493.92
0.17369445 -0.05 0.054832147 99492.401
0.16984353 -0.05 0.054482829 99491.177
0.16604925 -0.05 0.054125546 99490.048
0.16231083 -0.05 0.053760427 99489.146
0.15862752 -0.05 0.053387594 99488.359
0.15499855 -0.05 0.053007267 99487.718
0.1514232 -0.05 0.052619551 99487.415
0.14790072 -0.05 0.05222458 99487.284
0.14443041 -0.05 0.051822498 99487.414
0.14101156 -0.05 0.051413391 99487.737
0.13764347 -0.05 0.05099741 99488.179
0.13432548 -0.05 0.050574666 99488.886
0.13105688 -0.05 0.050145319 99489.599
0.12783703 -0.05 0.049709472 99490.604
0.12466529 -0.05 0.049267148 99491.84
0.12154098 -0.05 0.048818519 99493.119
0.11846349 -0.05 0.048363702 99494.631
0.11543222 -0.05 0.047902705 99496.412
0.11244654 -0.05 0.047435596 99498.385
0.10950586 -0.05 0.0469625 99500.511
0.1066096 -0.05 0.046483444 99503.066
0.10375717 -0.05 0.045998512 99505.653
0.10094799 -0.05 0.045507855 99508.358
0.098181523 -0.05 0.045011407 99511.554
0.095457221 -0.05 0.044509216 99514.807
0.092774535 -0.05 0.044001419 99518.227
0.090132961 -0.05 0.043487925 99522.22
0.087531979 -0.05 0.042968792 99526.289
0.084971078 -0.05 0.042444078 99530.796
0.082449763 -0.05 0.041913805 99535.242
0.079967546 -0.05 0.041378009 99539.996
0.07752398 -0.05 0.040836575 99545.313
0.075118608 -0.05 0.040289492 99551.075
0.072750963 -0.05 0.039736824 99556.972
0.070420599 -0.05 0.039178582 99563.168
0.068127114 -0.05 0.03861465 99569.903
0.065870095 -0.05 0.038044979 99576.942
0.063649133 -0.05 0.03746956 99584.383
0.061463851 -0.05 0.036888295 99592.32
0.059313883 -0.05 0.036301092 99600.756
0.057198866 -0.05 0.035707883 99609.654
0.055118461 -0.05 0.035108562 99619.102
0.053072317 -0.05 0.034503089 99628.912
0.051060147 -0.05 0.03389127 99639.625
0.049081665 -0.05 0.033272947 99650.841
0.047136565 -0.05 0.032648051 99662.703
0.045224599 -0.05 0.032016394 99675.178
0.043345533 -0.05 0.031377785 99688.45
0.04149918 -0.05 0.030731946 99702.737
0.039685343 -0.05 0.03007868 99717.907
0.037903826 -0.05 0.029417833 99733.897
0.036154502 -0.05 0.028749115 99751.083
0.034437274 -0.05 0.02807222 99769.321
0.032752072 -0.05 0.02738683 99788.689
0.031098849 -0.05 0.02669263 99809.385
0.029477606 -0.05 0.025989267 99831.648
0.027888403 -0.05 0.025276308 99855.468
0.026331318 -0.05 0.024553375 99880.927
0.024806508 -0.05 0.023819985 99908.355
0.023314191 -0.05 0.023075623 99937.792
0.021854636 -0.05 0.022319785 99969.434
0.020428236 -0.05 0.021551849 100003.65
0.019035408 -0.05 0.02077125 100040.33
0.017676737 -0.05 0.019977273 100080.31
0.016352896 -0.05 0.019169171 100123.44
0.01506465 -0.05 0.018346208 100170.22
0.013812956 -0.05 0.017507557 100220.62
0.012598952 -0.05 0.016652371 100275.53
0.01142397 -0.05 0.015779778 100335.61
0.010289576 -0.05 0.014888803 100401.16
0.0091975328 -0.05 0.013978416 100471.34
0.0081499145 -0.05 0.013047788 100547.43
0.0071492211 -0.05 0.012096113 100629.26
0.0061981978 -0.05 0.011122336 100717.17
0.005299911 -0.05 0.010125765 100810.94
0.0044580949 -0.05 0.0091062805 100909.87
0.0036766239 -0.05 0.0080635492 101012.7
0.0029595832 -0.05 0.0069977947 101117.45
0.0023116965 -0.05 0.005910389 101221.43
0.0017375215 -0.05 0.004802856 101321.16
0.0012413711 -0.05 0.0036777415 101410.69
0.00082712716 -0.05 0.0025391253 101485.78
0.00049782149 -0.05 0.001391441 101544.2
0.00025514875 -0.05 0.00024001268 101579.01
9.9126308e-05 -0.05 -0.0009091014 101587.57
2.8191565e-05 -0.05 -0.0020498525 101570.37
0.99684803 -0.05 0.0082692446 99997.176
0.99062584 -0.05 0.009100006 100026.23
0.98440271 -0.05 0.0099237698 100007.08
0.97817866 -0.05 0.010740563 100014.8
0.97195372 -0.05 0.011550493 100009.18
0.96572791 -0.05 0.012353717 100009.38
0.95950123 -0.05 0.013150218 100006.71
0.95327371 -0.05 0.013940061 100005.2
0.94704537 -0.05 0.0147234 100003
0.94081622 -0.05 0.01550032 100001.04
0.93458628 -0.05 0.016270827 99998.809
0.92835555 -0.05 0.017034979 99996.662
0.92212405 -0.05 0.017792855 99994.33
0.9158918 -0.05 0.018544489 99992.063
0.90965882 -0.05 0.019290032 99989.64
0.90342511 -0.05 0.020029482 99987.287
0.8971907 -0.05 0.020762871 99984.775
0.89095558 -0.05 0.021490335 99982.308
0.88471978 -0.05 0.022211887 99979.709
0.87848329 -0.05 0.022927471 99977.149
0.87224612 -0.05 0.023637225 99974.472
0.86600831 -0.05 0.024341217 99971.835
0.85976985 -0.05 0.025039419 99969.079
0.85353075 -0.05 0.025731916 99966.363
0.84729103 -0.05 0.026418772 99963.537
0.84105069 -0.05 0.027099973 99960.73
0.83480973 -0.05 0.027775484 99957.827
0.82856817 -0.05 0.028445477 99954.942
0.82232603 -0.05 0.029109916 99951.975
0.81608329 -0.05 0.029768753 99949.019
0.80983996 -0.05 0.030422068 99945.984
0.80359607 -0.05 0.031069869 99942.982
0.79735161 -0.05 0.03171219 99939.9
0.79110658 -0.05 0.032348985 99936.831
0.78486099 -0.05 0.032980341 99933.695
0.77861487 -0.05 0.033606222 99930.582
0.77236818 -0.05 0.034226596 99927.4
0.76612097 -0.05 0.034841526 99924.219
0.75987321 -0.05 0.035450997 99920.969
0.75362492 -0.05 0.036054999 99917.736
0.74737611 -0.05 0.036653504 99914.438
0.74112676 -0.05 0.037246496 99911.134
0.7348769 -0.05 0.037833961 99907.771
0.72862652 -0.05 0.038415864 99904.405
0.72237563 -0.05 0.038992238 99900.977
0.71612423 -0.05 0.039563112 99897.525
0.70987232 -0.05 0.040128312 99894.045
0.70361989 -0.05 0.040687889 99890.537
0.69736697 -0.05 0.041241809 99887.008
0.69111353 -0.05 0.041789978 99883.426
0.68485961 -0.05 0.042332453 99879.805
0.67860518 -0.05 0.042869137 99876.161
0.67235027 -0.05 0.043400037 99872.466
0.66609484 -0.05 0.043925039 99868.758
0.65983892 -0.05 0.044444044 99864.999
0.65358251 -0.05 0.044957134 99861.193
0.64732562 -0.05 0.045464223 99857.34
0.64106822 -0.05 0.045965146 99853.445
0.63481033 -0.05 0.046459871 99849.51
0.62855196 -0.05 0.046948399 99845.526
0.6222931 -0.05 0.047430591 99841.502
0.61603375 -0.05 0.047906365 99837.404
0.60977391 -0.05 0.048375716 99833.272
0.60351358 -0.05 0.048838501 99829.115
0.59725277 -0.05 0.049294647 99824.905
0.59099146 -0.05 0.049744071 99820.646
0.58472967 -0.05 0.050186681 99816.308
0.5784674 -0.05 0.050622361 99811.926
0.57220464 -0.05 0.051050968 99807.501
0.56594139 -0.05 0.051472468 99803.01
0.55967767 -0.05 0.051886739 99798.481
0.55341346 -0.05 0.052293619 99793.868
0.54714876 -0.05 0.052693037 99789.184
0.54088359 -0.05 0.05308483 99784.472
0.53461794 -0.05 0.05346886 99779.703
0.52835182 -0.05 0.053845055 99774.857
0.52208521 -0.05 0.054213243 99769.947
0.51581813 -0.05 0.054573283 99764.954
0.50955058 -0.05 0.054925006 99759.947
0.50328257 -0.05 0.055268274 99754.84
0.49701408 -0.05 0.055602965 99749.669
0.49074514 -0.05 0.05592888 99744.372
0.48447573 -0.05 0.056245816 99739.117
0.47820588 -0.05 0.05655365 99733.882
0.47193557 -0.05 0.056852242 99728.666
0.46566482 -0.05 0.057141341 99723.352
0.45939363 -0.05 0.057420735 99717.977
0.45312202 -0.05 0.057690261 99712.524
0.44684997 -0.05 0.057949734 99707.054
0.4405775 -0.05 0.058198929 99701.517
0.43430464 -0.05 0.058437606 99695.944
0.42803137 -0.05 0.058665555 99690.312
0.4217577 -0.05 0.058882577 99684.691
0.41548367 -0.05 0.059088422 99679.048
0.40920927 -0.05 0.059282813 99673.371
0.40293453 -0.05 0.059465525 99667.572
0.39665944 -0.05 0.059636274 99661.872
0.39038403 -0.05 0.05979475 99656.176
0.38410833 -0.05 0.059940737 99650.43
0.37783234 -0.05 0.060073996 99644.575
0.37155607 -0.05 0.060194128 99638.87
0.36527956 -0.05 0.060300814 99633.153
0.35900285 -0.05 0.060393812 99627.439
0.35272594 -0.05 0.060472785 99621.637
0.34644886 -0.05 0.060537376 99615.949
0.34017166 -0.05 0.0605872 99610.324
0.33389434 -0.05 0.060621926 99604.638
0.32761697 -0.05 0.060641164 99598.958
0.32133957 -0.05 0.060644491 99593.41
0.31506217 -0.05 0.060631517 99588.005
0.30878483 -0.05 0.060601826 99582.482
0.3025076 -0.05 0.060554988 99576.469
