# wallShearStress  FACE_DATA 448
# x y z  wallShearStress_x wallShearStress_y wallShearStress_z
0.29778657 -0.05 -0.059506912 -7.1106494 4.6737052e-17 -0.069506714
0.29214952 -0.05 -0.059552501 -6.9738891 -3.6690308e-17 -0.049850059
0.28659351 -0.05 -0.059582865 -6.8333063 -6.0080699e-18 -0.029531076
0.28111742 -0.05 -0.059598226 -6.6995978 6.4307653e-18 -0.010959094
0.27572014 -0.05 -0.059598864 -6.5727141 -8.1949051e-18 0.0073439073
0.27040058 -0.05 -0.059585088 -6.4525577 -1.5738422e-17 0.025537921
0.26515763 -0.05 -0.059557184 -6.3391353 -6.8590049e-18 0.042003899
0.25999026 -0.05 -0.059515407 -6.2322432 3.7697244e-17 0.057803131
0.2548974 -0.05 -0.059460058 -6.1318875 4.1822207e-18 0.073412409
0.24987803 -0.05 -0.059391395 -6.0378213 1.5571989e-17 0.089077255
0.24493112 -0.05 -0.059309613 -5.9487828 -8.5037225e-18 0.10466756
0.24005568 -0.05 -0.059215001 -5.8644209 4.9739892e-17 0.11996283
0.23525071 -0.05 -0.059107812 -5.7835322 3.2383232e-17 0.1349993
0.23051523 -0.05 -0.05898832 -5.7058017 2.3763513e-16 0.14989756
0.22584828 -0.05 -0.05885678 -5.6318738 -1.1547575e-16 0.16471677
0.22124894 -0.05 -0.058713374 -5.561334 2.0870155e-16 0.1793888
0.21671624 -0.05 -0.058558376 -5.4944368 7.6793313e-17 0.19387958
0.21224926 -0.05 -0.05839202 -5.4313352 -9.4256191e-17 0.20841622
0.20784712 -0.05 -0.058214447 -5.3711454 -8.3034572e-17 0.22281155
0.20350892 -0.05 -0.058025935 -5.3142486 1.2494303e-17 0.23712274
0.19923377 -0.05 -0.057826704 -5.2606851 -5.3921458e-17 0.25142704
0.19502081 -0.05 -0.057616997 -5.2103773 1.2672104e-17 0.26570685
0.19086916 -0.05 -0.057397027 -5.1635294 -4.6125059e-17 0.28016379
0.18677801 -0.05 -0.057166888 -5.1192577 -5.2348118e-17 0.29463024
0.18274651 -0.05 -0.056926842 -5.0779434 9.8566367e-17 0.30910942
0.17877386 -0.05 -0.056677089 -5.0398185 -1.9828023e-16 0.3238087
0.17485924 -0.05 -0.056417798 -5.004029 -3.2074797e-16 0.33850685
0.17100186 -0.05 -0.056149188 -4.971135 2.8152215e-16 0.35342819
0.16720093 -0.05 -0.055871427 -4.9407291 -6.0523917e-16 0.36852401
0.16345569 -0.05 -0.055584662 -4.9128474 4.4244888e-18 0.38389946
0.15976537 -0.05 -0.055289032 -4.8869752 -2.3020592e-16 0.39936867
0.15612923 -0.05 -0.05498477 -4.8636569 -1.3251097e-16 0.41511342
0.15254654 -0.05 -0.054671999 -4.8426666 -2.5071934e-16 0.43116571
0.14901657 -0.05 -0.054350868 -4.8239489 1.8423993e-17 0.44746853
0.1455386 -0.05 -0.054021535 -4.808033 1.9633648e-16 0.4642734
0.14211193 -0.05 -0.053684101 -4.7942427 -1.813086e-16 0.48140499
0.13873588 -0.05 -0.053338732 -4.7824478 -9.0293972e-17 0.49886726
0.13540976 -0.05 -0.052985551 -4.7725615 -1.6524761e-16 0.51664948
0.13213289 -0.05 -0.052624736 -4.7648965 3.2078198e-17 0.53486804
0.12890462 -0.05 -0.052256402 -4.7594407 -3.0666804e-17 0.55373657
0.12572431 -0.05 -0.051880583 -4.754977 1.6057809e-16 0.57285114
0.1225913 -0.05 -0.051497469 -4.7524191 1.323096e-16 0.59239258
0.11950496 -0.05 -0.051107187 -4.7525554 -2.4076539e-16 0.61277207
0.11646469 -0.05 -0.05070976 -4.7544601 -1.4605675e-16 0.63376846
0.1134699 -0.05 -0.050305267 -4.7579939 -1.08092e-16 0.65531265
0.11051996 -0.05 -0.049893847 -4.7635729 -1.5965664e-16 0.67764032
0.1076143 -0.05 -0.049475536 -4.7710739 -4.2453889e-16 0.7007465
0.10475234 -0.05 -0.049050435 -4.7798569 -2.3156817e-17 0.72432034
0.1019335 -0.05 -0.048618703 -4.7909273 -5.8710713e-17 0.74894556
0.099157244 -0.05 -0.048180288 -4.8028708 -6.8996065e-16 0.77424224
0.096423027 -0.05 -0.047735248 -4.8156591 2.0047826e-16 0.80012665
0.093730296 -0.05 -0.047283731 -4.8311066 -2.6133288e-16 0.82741636
0.091078549 -0.05 -0.046825658 -4.8482812 -2.1640263e-17 0.85573663
0.088467268 -0.05 -0.046361099 -4.866406 2.5450974e-16 0.88481227
0.085895942 -0.05 -0.04589012 -4.8862754 5.2754577e-16 0.91504264
0.083364077 -0.05 -0.045412755 -4.9068614 -3.5593798e-16 0.94616427
0.080871185 -0.05 -0.044929047 -4.9298164 6.9476674e-17 0.97894359
0.078416819 -0.05 -0.044438896 -4.9538608 5.454112e-17 1.0128844
0.076000521 -0.05 -0.043942296 -4.9795762 -8.9854253e-17 1.0480521
0.073621823 -0.05 -0.043439321 -5.0072448 -3.1403012e-16 1.0847185
0.071280281 -0.05 -0.042929996 -5.0364161 1.9883526e-16 1.1231212
0.068975491 -0.05 -0.042414207 -5.0651657 1.5624099e-16 1.1626602
0.066707039 -0.05 -0.041891919 -5.0932043 1.3521744e-16 1.2031721
0.064474516 -0.05 -0.041363128 -5.1221331 -1.6135931e-16 1.2454466
0.062277543 -0.05 -0.040827744 -5.1528336 1.1581911e-16 1.2899709
0.060115751 -0.05 -0.040285686 -5.1860358 -3.2266329e-16 1.3370684
0.057988777 -0.05 -0.039736891 -5.2213991 -7.348725e-17 1.3865467
0.055896279 -0.05 -0.039181262 -5.2575825 -4.1346847e-16 1.4379088
0.053837907 -0.05 -0.038618763 -5.2939158 -1.6602751e-16 1.4912964
0.051813368 -0.05 -0.038049208 -5.3301284 -2.4395807e-16 1.5466377
0.049822372 -0.05 -0.037472446 -5.3652532 2.4029518e-17 1.6039535
0.047864616 -0.05 -0.036888413 -5.4025859 -4.8067829e-16 1.6652084
0.045939844 -0.05 -0.036296927 -5.4405214 -2.0531401e-16 1.7297177
0.044047819 -0.05 -0.035697802 -5.4772561 -5.2010057e-18 1.7970408
0.042188348 -0.05 -0.035090763 -5.5117236 -5.2993862e-16 1.8662741
0.04036123 -0.05 -0.034475618 -5.5452526 2.3092724e-16 1.9385346
0.038566267 -0.05 -0.033852216 -5.5818529 -3.8347353e-16 2.0168773
0.036803326 -0.05 -0.033220273 -5.6229982 -1.6262114e-16 2.1017358
0.035072301 -0.05 -0.032579481 -5.6644857 6.7708921e-16 2.191053
0.033373118 -0.05 -0.031929526 -5.7031508 -2.173702e-16 2.2834029
0.031705723 -0.05 -0.031270092 -5.7361386 -3.3696949e-16 2.3781542
0.030070108 -0.05 -0.030600828 -5.763698 3.0480441e-16 2.4779448
0.028466326 -0.05 -0.0299213 -5.788034 1.1770241e-16 2.5858593
0.026894445 -0.05 -0.029231128 -5.8093925 -6.949861e-16 2.6994606
0.025354614 -0.05 -0.028529824 -5.8172882 -1.2861413e-15 2.8127762
0.023847038 -0.05 -0.027816871 -5.8145471 3.1122368e-17 2.9268988
0.022371978 -0.05 -0.027091759 -5.8119237 1.2422511e-16 3.0480137
0.020929812 -0.05 -0.026353858 -5.813429 -8.3141065e-16 3.1798691
0.019520945 -0.05 -0.025602593 -5.8002244 -2.2882165e-16 3.3129221
0.018145948 -0.05 -0.024837238 -5.7393842 -3.5269197e-16 3.4310059
0.016805477 -0.05 -0.02405703 -5.6056952 3.2810485e-17 3.5278129
0.015500283 -0.05 -0.023261222 -5.4155829 7.1771873e-16 3.6161211
0.014231303 -0.05 -0.022448961 -5.1942424 7.7200687e-17 3.7231341
0.012999659 -0.05 -0.021619382 -4.9870461 2.672751e-16 3.8926309
0.011806665 -0.05 -0.020771582 -4.8291522 -5.3660304e-16 4.1622523
0.010653865 -0.05 -0.019904553 -4.6957541 1.8468102e-16 4.5424843
0.0095429991 -0.05 -0.019017231 -4.6011756 7.5430604e-17 5.0272446
0.0084761252 -0.05 -0.018108742 -4.5762433 4.6370592e-16 5.5774997
0.0074557252 -0.05 -0.017178228 -4.6580001 -1.1498648e-16 6.1961524
0.0064845217 -0.05 -0.016224576 -4.7349118 2.7190365e-17 6.8038592
0.0055655658 -0.05 -0.015247033 -4.717245 -1.4196011e-16 7.3035289
0.0047025884 -0.05 -0.014245397 -4.5432284 7.8853293e-17 7.6486499
0.0038994562 -0.05 -0.013219257 -4.2200558 -1.8004807e-16 7.8157416
0.0031602581 -0.05 -0.01216875 -3.756958 2.080508e-16 7.780991
0.0024897455 -0.05 -0.011095148 -3.2001734 -2.3722197e-16 7.5128762
0.001892507 -0.05 -0.0099998792 -2.5899477 -1.8609611e-16 7.043425
0.0013729079 -0.05 -0.0088853998 -1.976113 -1.06649e-16 6.3717872
0.00093491466 -0.05 -0.0077557067 -1.392975 3.2234787e-16 5.5165584
0.00058165118 -0.05 -0.0066151689 -0.88900132 2.5538351e-16 4.5362227
0.00031492323 -0.05 -0.005469074 -0.53936516 4.7402929e-17 3.4798962
0.00013487505 -0.05 -0.0043234786 -0.3111685 -2.1013482e-17 2.39452
4.0071002e-05 -0.05 -0.0031844628 -0.18604006 -3.1096653e-17 1.3812487
0.99685745 -0.05 0.0073699415 -62.250913 8.1735308e-16 -9.2747957
0.99065401 -0.05 0.006409083 -57.41646 2.4649899e-16 -8.8280158
0.98444949 -0.05 0.0054552008 -57.319032 1.4845916e-16 -8.760784
0.97824391 -0.05 0.0045082685 -56.915096 -1.2733724e-15 -8.6358196
0.9720373 -0.05 0.00356818 -56.543459 5.8556257e-16 -8.5160914
0.96582967 -0.05 0.0026347772 -56.126477 5.0509462e-16 -8.3921979
0.95962103 -0.05 0.0017080772 -55.700532 -1.8169121e-15 -8.2674271
0.95341141 -0.05 0.00078801678 -55.258288 -2.0306333e-16 -8.1430969
0.94720084 -0.05 -0.00012555864 -54.805381 8.1284362e-16 -8.0184741
0.94098932 -0.05 -0.0010327333 -54.338702 -7.8968018e-16 -7.8938168
0.93477688 -0.05 -0.0019335122 -53.863324 -9.4435652e-16 -7.7685991
0.92856352 -0.05 -0.002827955 -53.378351 -1.8173571e-16 -7.6443583
0.92234925 -0.05 -0.0037161384 -52.886261 7.224508e-16 -7.5199531
0.91613411 -0.05 -0.0045980971 -52.3865 -2.5844281e-16 -7.3967138
0.90991811 -0.05 -0.0054739821 -51.883989 -1.0559315e-15 -7.274452
0.90370125 -0.05 -0.0063437905 -51.378013 7.5946247e-16 -7.1526919
0.89748355 -0.05 -0.007207554 -50.870287 2.3512358e-16 -7.0325561
0.89126503 -0.05 -0.0080654081 -50.359744 -1.5463978e-15 -6.9135898
0.8850457 -0.05 -0.0089173665 -49.849243 6.7714575e-16 -6.795349
0.87882556 -0.05 -0.0097633727 -49.336275 -4.5746532e-16 -6.678237
0.87260462 -0.05 -0.010603564 -48.823135 -4.7144859e-16 -6.5631577
0.86638292 -0.05 -0.011438007 -48.307888 1.3180258e-15 -6.4485059
0.86016044 -0.05 -0.012266675 -47.791061 -1.0875371e-15 -6.3352012
0.85393721 -0.05 -0.013089654 -47.27079 9.1854014e-16 -6.2228722
0.84771324 -0.05 -0.013907006 -46.747326 3.4084228e-16 -6.1112534
0.84148854 -0.05 -0.014718716 -46.218955 5.4842246e-16 -5.9998834
0.83526309 -0.05 -0.015524751 -45.686968 7.7690562e-16 -5.8894122
0.82903693 -0.05 -0.016325283 -45.153455 1.0908862e-15 -5.7804317
0.82281006 -0.05 -0.017120273 -44.620137 1.3700196e-15 -5.6713156
0.81658248 -0.05 -0.017909675 -44.088634 -2.0032371e-15 -5.5643562
0.81035421 -0.05 -0.018693567 -43.561206 -1.4393941e-15 -5.458512
0.80412524 -0.05 -0.019471961 -43.037695 -1.8991121e-16 -5.3545985
0.79789559 -0.05 -0.020244886 -42.518216 6.8685144e-16 -5.2518036
0.79166527 -0.05 -0.021012298 -42.00105 -2.1795056e-16 -5.150552
0.78543428 -0.05 -0.021774285 -41.487915 -1.1567585e-15 -5.0509683
0.77920262 -0.05 -0.022530809 -40.975742 1.1938763e-15 -4.9520156
0.7729703 -0.05 -0.02328184 -40.461838 3.16086e-16 -4.854379
0.76673732 -0.05 -0.024027438 -39.943585 -7.3432476e-16 -4.7570814
0.7605037 -0.05 -0.02476759 -39.421303 3.6167281e-16 -4.6600849
0.75426943 -0.05 -0.025502284 -38.895925 -2.0153329e-15 -4.5634132
0.74803452 -0.05 -0.026231495 -38.3703 5.5669116e-16 -4.4673796
0.74179896 -0.05 -0.026955205 -37.847838 1.7963256e-16 -4.372533
0.73556276 -0.05 -0.0276734 -37.332231 -3.4978219e-16 -4.2792065
0.72932594 -0.05 -0.028386045 -36.823072 1.6980882e-15 -4.1874917
0.72308849 -0.05 -0.029093171 -36.320546 -7.276171e-16 -4.0976183
0.71685042 -0.05 -0.029794811 -35.824273 6.7968118e-16 -4.0089657
0.7106117 -0.05 -0.030490789 -35.331212 -1.6070206e-16 -3.9211618
0.70437237 -0.05 -0.031181155 -34.839088 -9.196801e-16 -3.8350776
0.69813241 -0.05 -0.031865876 -34.343436 -1.0762496e-15 -3.7485968
0.69189183 -0.05 -0.032544859 -33.840389 3.9341083e-16 -3.662783
0.68565063 -0.05 -0.033218158 -33.330861 1.1691169e-16 -3.5765903
0.67940881 -0.05 -0.033885678 -32.817824 -2.1586101e-16 -3.4905984
0.67316637 -0.05 -0.034547427 -32.308794 -1.6600192e-15 -3.4055624
0.66692332 -0.05 -0.035203289 -31.807515 6.1383858e-16 -3.3215353
0.66067964 -0.05 -0.035853165 -31.316312 -1.0153442e-15 -3.2396734
0.65443535 -0.05 -0.036497138 -30.834491 1.1034455e-15 -3.159642
0.64819044 -0.05 -0.037135122 -30.359662 -2.6536285e-16 -3.0806426
0.64194491 -0.05 -0.037766952 -29.886919 -9.2744679e-16 -3.0027867
0.63569875 -0.05 -0.038392595 -29.410579 8.0873214e-16 -2.9256356
0.62945198 -0.05 -0.039012052 -28.923707 -1.9136693e-16 -2.8482114
0.62320458 -0.05 -0.039625186 -28.423165 8.8963848e-16 -2.7697251
0.61695656 -0.05 -0.040231913 -27.915014 7.2278096e-16 -2.6911969
0.61070793 -0.05 -0.040832228 -27.41046 5.7094063e-16 -2.6132831
0.60445866 -0.05 -0.04142599 -26.914808 -3.7054965e-16 -2.5367309
0.59820877 -0.05 -0.042013124 -26.427288 -7.2254258e-16 -2.4618299
0.59195824 -0.05 -0.042593547 -25.947489 5.3447423e-17 -2.3882819
0.58570709 -0.05 -0.043167168 -25.473667 -5.6862973e-18 -2.3164116
0.57945531 -0.05 -0.043733871 -24.999723 5.2636366e-16 -2.2453123
0.57320289 -0.05 -0.044293512 -24.516022 -3.1351739e-16 -2.1745452
0.56694986 -0.05 -0.044846058 -24.012164 5.4193606e-17 -2.102959
0.56069618 -0.05 -0.045391387 -23.485654 3.0596965e-16 -2.0297409
0.55444186 -0.05 -0.045929337 -22.948067 5.1985409e-16 -1.9559177
0.54818691 -0.05 -0.046459837 -22.41888 2.6955232e-16 -1.8833662
0.54193131 -0.05 -0.046982723 -21.900638 -4.4843622e-17 -1.8123447
0.53567507 -0.05 -0.047497857 -21.394432 9.3888256e-16 -1.7433786
0.5294182 -0.05 -0.04800517 -20.899704 4.2821694e-16 -1.6762693
0.52316067 -0.05 -0.048504486 -20.413799 3.0730467e-16 -1.6110934
0.51690251 -0.05 -0.048995666 -19.929749 1.8884995e-16 -1.5478889
0.51064369 -0.05 -0.04947854 -19.434516 6.3535031e-17 -1.4850425
0.50438423 -0.05 -0.049952972 -18.913383 5.185673e-16 -1.4213025
0.49812414 -0.05 -0.050418838 -18.370188 -5.7731388e-16 -1.356112
0.4918634 -0.05 -0.05087594 -17.836414 3.17443e-16 -1.2919973
0.485602 -0.05 -0.051324074 -17.312578 7.4838439e-16 -1.2294171
0.47933996 -0.05 -0.051763117 -16.801494 7.779423e-16 -1.1685727
0.47307729 -0.05 -0.05219293 -16.3021 -2.4066501e-17 -1.1088149
0.46681396 -0.05 -0.052613263 -15.811081 6.1978959e-16 -1.0503734
0.46055 -0.05 -0.053023901 -15.328621 -7.5701205e-17 -0.99377019
0.4542854 -0.05 -0.053424681 -14.854347 -4.2070302e-16 -0.93894353
0.44802016 -0.05 -0.05381542 -14.388078 6.4382458e-16 -0.88576157
0.44175429 -0.05 -0.054195892 -13.928884 -9.4850361e-16 -0.83412658
0.4354878 -0.05 -0.054565858 -13.476585 -1.8169005e-17 -0.78404359
0.42922067 -0.05 -0.054925105 -13.033009 -4.1025764e-16 -0.73581683
0.42295293 -0.05 -0.055273436 -12.603562 6.7810294e-17 -0.68937865
0.41668458 -0.05 -0.0556106 -12.190488 -1.974933e-16 -0.64479514
0.41041563 -0.05 -0.055936322 -11.794768 -3.0402376e-16 -0.60213238
0.40414608 -0.05 -0.056250373 -11.416418 5.1010098e-16 -0.56143233
0.39787595 -0.05 -0.056552471 -11.054304 2.8857234e-16 -0.52233942
0.39160523 -0.05 -0.056842305 -10.711501 -8.806367e-17 -0.48490503
0.38533395 -0.05 -0.05711966 -10.389605 6.9708256e-17 -0.44942102
0.37906213 -0.05 -0.057384295 -10.086298 -1.1948377e-16 -0.41560628
0.37278976 -0.05 -0.057635814 -9.7975351 -2.6648801e-17 -0.38305333
0.36651687 -0.05 -0.057873892 -9.5208615 -2.4640773e-16 -0.35184874
0.36024347 -0.05 -0.05809829 -9.2562732 3.5813529e-17 -0.32173593
0.35396959 -0.05 -0.05830867 -9.0023859 4.5373542e-17 -0.29263115
0.34769524 -0.05 -0.058504675 -8.7585859 -2.0723141e-16 -0.26443229
0.34142045 -0.05 -0.058685919 -8.5239273 1.2886083e-16 -0.23713224
0.33514524 -0.05 -0.058852071 -8.2988307 -8.0454182e-17 -0.21072274
0.32886965 -0.05 -0.05900274 -8.0823836 1.1616308e-16 -0.18501968
0.32259369 -0.05 -0.059137501 -7.8736131 4.8726487e-17 -0.16009463
0.3163174 -0.05 -0.059255964 -7.6726863 -1.3384704e-17 -0.1359165
0.31004082 -0.05 -0.059357715 -7.4812066 -5.4859008e-17 -0.11251147
0.30376398 -0.05 -0.059442318 -7.2826982 -4.014018e-18 -0.089736209
0.29653015 -0.05 0.060494414 -6.7577518 2.3604861e-17 -0.094365143
0.29089338 -0.05 0.060421965 -7.001781 1.3021952e-17 -0.11589182
0.28533795 -0.05 0.060335991 -7.2711026 1.3742702e-16 -0.13953655
0.27986274 -0.05 0.060236693 -7.5378495 -5.8530374e-17 -0.16482414
0.27446664 -0.05 0.060124323 -7.808051 -9.5554703e-17 -0.19178482
0.26914852 -0.05 0.05999917 -8.0801723 7.3277695e-17 -0.22046715
0.2639073 -0.05 0.059861495 -8.3526353 6.9509775e-17 -0.2507627
0.25874194 -0.05 0.059711534 -8.624911 1.2222325e-17 -0.28296968
0.25365137 -0.05 0.059549565 -8.8978381 2.2977014e-17 -0.31687289
0.24863453 -0.05 0.059375821 -9.1720918 9.7781947e-17 -0.35286967
0.24369042 -0.05 0.05919048 -9.4461788 -8.4203804e-17 -0.3905303
0.23881802 -0.05 0.058993808 -9.7194763 1.0179359e-16 -0.42992377
0.23401635 -0.05 0.058786036 -9.9899657 3.3040345e-16 -0.47083828
0.22928442 -0.05 0.058567421 -10.254018 -1.4229543e-16 -0.51329799
0.22462125 -0.05 0.058338194 -10.512771 9.1885535e-17 -0.55754799
0.22002591 -0.05 0.058098519 -10.764073 4.4704844e-16 -0.60341187
0.21549744 -0.05 0.057848649 -11.006397 4.2642527e-17 -0.65054589
0.21103493 -0.05 0.057588801 -11.242057 -3.5168618e-16 -0.69960749
0.20663748 -0.05 0.057319096 -11.474569 -1.5496416e-16 -0.75033288
0.20230418 -0.05 0.057039792 -11.709962 -9.6551702e-17 -0.80271911
0.19803414 -0.05 0.056751093 -11.947639 3.243666e-16 -0.85664639
0.19382648 -0.05 0.056453221 -12.182911 -3.5490827e-16 -0.91166973
0.18968035 -0.05 0.056146374 -12.406725 -1.6943563e-16 -0.96790389
0.18559492 -0.05 0.055830626 -12.609086 1.06561e-16 -1.0252214
0.18156933 -0.05 0.055506221 -12.788472 4.1127493e-17 -1.0844018
0.17760278 -0.05 0.055173344 -12.951016 -9.7406177e-17 -1.1470887
0.17369445 -0.05 0.054832147 -13.120002 -9.7727315e-17 -1.2140162
0.16984353 -0.05 0.054482829 -13.311138 1.7223182e-16 -1.286108
0.16604925 -0.05 0.054125546 -13.527323 4.2243849e-16 -1.3627124
0.16231083 -0.05 0.053760427 -13.75918 -2.5532546e-16 -1.4433884
0.15862752 -0.05 0.053387594 -14.00758 3.0423034e-16 -1.5279285
0.15499855 -0.05 0.053007267 -14.279233 6.0938261e-17 -1.6168976
0.1514232 -0.05 0.052619551 -14.581856 1.34857e-16 -1.7113537
0.14790072 -0.05 0.05222458 -14.914482 6.8416148e-16 -1.8117512
0.14443041 -0.05 0.051822498 -15.266666 -3.7760185e-16 -1.9176045
0.14101156 -0.05 0.051413391 -15.626298 -2.0579497e-17 -2.0277239
0.13764347 -0.05 0.05099741 -15.986099 6.6458953e-17 -2.1416268
0.13432548 -0.05 0.050574666 -16.341441 -6.6722323e-17 -2.2590946
0.13105688 -0.05 0.050145319 -16.689786 -2.7165655e-16 -2.3798116
0.12783703 -0.05 0.049709472 -17.029651 1.833775e-16 -2.5040051
0.12466529 -0.05 0.049267148 -17.358692 2.8437366e-16 -2.6307913
0.12154098 -0.05 0.048818519 -17.677284 6.3426503e-16 -2.7601305
0.11846349 -0.05 0.048363702 -17.984736 3.8333456e-16 -2.8925081
0.11543222 -0.05 0.047902705 -18.279616 3.1793699e-16 -3.0287285
0.11244654 -0.05 0.047435596 -18.56172 5.0901111e-16 -3.1672997
0.10950586 -0.05 0.0469625 -18.831275 -1.8935532e-17 -3.308411
0.1066096 -0.05 0.046483444 -19.086877 -2.3378482e-16 -3.4519119
0.10375717 -0.05 0.045998512 -19.329965 -2.1305524e-16 -3.5973791
0.10094799 -0.05 0.045507855 -19.562107 -1.2029257e-16 -3.7459229
0.098181523 -0.05 0.045011407 -19.781334 4.8095819e-16 -3.8969592
0.095457221 -0.05 0.044509216 -19.988153 2.7067904e-16 -4.0498559
0.092774535 -0.05 0.044001419 -20.183679 1.2179497e-16 -4.2057503
0.090132961 -0.05 0.043487925 -20.365467 2.531061e-17 -4.3637886
0.087531979 -0.05 0.042968792 -20.534624 -2.9467503e-16 -4.5235122
0.084971078 -0.05 0.042444078 -20.691157 7.7856799e-17 -4.6854494
0.082449763 -0.05 0.041913805 -20.836508 3.6678051e-16 -4.8493625
0.079967546 -0.05 0.041378009 -20.971025 1.1851475e-16 -5.0159977
0.07752398 -0.05 0.040836575 -21.092714 2.1459997e-16 -5.1845173
0.075118608 -0.05 0.040289492 -21.199255 1.1516435e-16 -5.3544404
0.072750963 -0.05 0.039736824 -21.291321 9.8254709e-16 -5.5259277
0.070420599 -0.05 0.039178582 -21.368763 6.3710701e-16 -5.6997058
0.068127114 -0.05 0.03861465 -21.429923 3.7789668e-16 -5.8750684
0.065870095 -0.05 0.038044979 -21.47484 -1.3963427e-16 -6.0516111
0.063649133 -0.05 0.03746956 -21.503533 3.28715e-16 -6.2297948
0.061463851 -0.05 0.036888295 -21.51494 2.5527848e-16 -6.4091828
0.059313883 -0.05 0.036301092 -21.508785 7.3590187e-18 -6.5894923
0.057198866 -0.05 0.035707883 -21.485115 4.2529427e-16 -6.7710466
0.055118461 -0.05 0.035108562 -21.442775 -2.3512182e-16 -6.9533784
0.053072317 -0.05 0.034503089 -21.382865 -4.9641277e-16 -7.1377176
0.051060147 -0.05 0.03389127 -21.302968 -3.5242588e-16 -7.3222367
0.049081665 -0.05 0.033272947 -21.203314 -4.5164548e-16 -7.507234
0.047136565 -0.05 0.032648051 -21.08432 5.530377e-16 -7.6924674
0.045224599 -0.05 0.032016394 -20.945254 3.1908019e-16 -7.8785171
0.043345533 -0.05 0.031377785 -20.78497 1.7428597e-16 -8.0645488
0.04149918 -0.05 0.030731946 -20.601664 -1.2373049e-15 -8.2496411
0.039685343 -0.05 0.03007868 -20.396074 -1.2394665e-17 -8.4334019
0.037903826 -0.05 0.029417833 -20.167901 7.1229989e-16 -8.6162347
0.036154502 -0.05 0.028749115 -19.914931 2.6991763e-16 -8.7970954
0.034437274 -0.05 0.02807222 -19.637882 -4.423339e-16 -8.9768524
0.032752072 -0.05 0.02738683 -19.336987 -3.0161343e-16 -9.150565
0.031098849 -0.05 0.02669263 -19.009296 2.4785157e-16 -9.3220875
0.029477606 -0.05 0.025989267 -18.653217 -5.4367937e-16 -9.4881954
0.027888403 -0.05 0.025276308 -18.269118 3.3541112e-16 -9.6477747
0.026331318 -0.05 0.024553375 -17.856434 5.6902561e-16 -9.8002524
0.024806508 -0.05 0.023819985 -17.413418 6.7940731e-16 -9.94333
0.023314191 -0.05 0.023075623 -16.939049 3.307892e-17 -10.075378
0.021854636 -0.05 0.022319785 -16.430824 2.558582e-16 -10.19456
0.020428236 -0.05 0.021551849 -15.888957 2.3842188e-16 -10.298184
0.019035408 -0.05 0.02077125 -15.313659 -7.7017211e-16 -10.385162
0.017676737 -0.05 0.019977273 -14.702478 5.3289216e-16 -10.450185
0.016352896 -0.05 0.019169171 -14.055493 -1.0002273e-16 -10.490454
0.01506465 -0.05 0.018346208 -13.372557 2.1873603e-16 -10.501883
0.013812956 -0.05 0.017507557 -12.654292 -9.6127123e-17 -10.481753
0.012598952 -0.05 0.016652371 -11.900502 -5.863215e-16 -10.423775
0.01142397 -0.05 0.015779778 -11.11007 3.3348035e-17 -10.319978
0.010289576 -0.05 0.014888803 -10.283591 6.2470215e-16 -10.162826
0.0091975328 -0.05 0.013978416 -9.4277019 -7.8959251e-16 -9.9514707
0.0081499145 -0.05 0.013047788 -8.5489463 -1.9566115e-16 -9.6767041
0.0071492211 -0.05 0.012096113 -7.6475377 -3.7364627e-16 -9.3320457
0.0061981978 -0.05 0.011122336 -6.730745 2.4571601e-16 -8.9013664
0.005299911 -0.05 0.010125765 -5.8109739 2.8191893e-16 -8.3742278
0.0044580949 -0.05 0.0091062805 -4.9028019 -1.3322046e-16 -7.7414063
0.0036766239 -0.05 0.0080635492 -4.0230599 7.8800863e-17 -7.0077992
0.0029595832 -0.05 0.0069977947 -3.186177 1.1647805e-16 -6.1746202
0.0023116965 -0.05 0.005910389 -2.395149 4.4698222e-16 -5.2511891
0.0017375215 -0.05 0.004802856 -1.6961938 7.0873179e-17 -4.2596392
0.0012413711 -0.05 0.0036777415 -1.1172407 2.0854317e-16 -3.2219563
0.00082712716 -0.05 0.0025391253 -0.67053122 1.0194619e-16 -2.169252
0.00049782149 -0.05 0.001391441 -0.3885162 -2.7912574e-16 -1.2150045
0.00025514875 -0.05 0.00024001268 -0.22510019 -4.2191134e-18 -0.52605332
9.9126308e-05 -0.05 -0.0009091014 -0.15693623 -6.6338257e-17 0.067603852
2.8191565e-05 -0.05 -0.0020498525 -0.13454236 -5.3920483e-20 0.68022615
0.99684803 -0.05 0.0082692446 0.15450508 1.353139e-16 0.13633838
0.99062584 -0.05 0.009100006 -0.0088041071 -1.2154742e-16 0.00020278895
0.98440271 -0.05 0.0099237698 0.01041447 2.7857073e-16 -0.00093639428
0.97817866 -0.05 0.010740563 -0.0019532806 1.3603654e-16 0.00020915874
0.97195372 -0.05 0.011550493 0.0052001357 -9.2577616e-17 -0.00042938943
0.96572791 -0.05 0.012353717 0.0024107251 4.7435879e-16 -0.00014563269
0.95950123 -0.05 0.013150218 0.0040625162 -9.1852664e-16 -0.0003569761
0.95327371 -0.05 0.013940061 0.0036253998 2.4762499e-16 -0.00027501641
0.94704537 -0.05 0.0147234 0.0041102263 -6.0067432e-17 -0.00034054682
0.94081622 -0.05 0.01550032 0.0041712621 1.0153828e-15 -0.000321895
0.93458628 -0.05 0.016270827 0.0044135092 -5.0971933e-16 -0.00035010268
0.92835555 -0.05 0.017034979 0.0045553346 -5.8735298e-16 -0.00035180102
0.92212405 -0.05 0.017792855 0.0047402574 9.1219146e-18 -0.00037587966
0.9158918 -0.05 0.018544489 0.0048744511 4.4116266e-16 -0.00038613873
0.90965882 -0.05 0.019290032 0.0050882068 3.232026e-16 -0.00041193219
0.90342511 -0.05 0.020029482 0.0052065871 -2.1372597e-16 -0.00039705226
0.8971907 -0.05 0.020762871 0.0054209377 -2.6405077e-16 -0.00040319349
0.89095558 -0.05 0.021490335 0.0055336189 -4.7057603e-17 -0.00040795377
0.88471978 -0.05 0.022211887 0.0057308459 -2.8256221e-16 -0.00041629161
0.87848329 -0.05 0.022927471 0.0058493662 -1.7114363e-16 -0.00041757379
0.87224612 -0.05 0.023637225 0.0060188151 3.0681967e-16 -0.00043228854
0.86600831 -0.05 0.024341217 0.0062579907 -8.3182051e-17 -0.00042366205
0.85976985 -0.05 0.025039419 0.0067015677 -4.2751718e-16 -0.00042323005
0.85353075 -0.05 0.025731916 0.0072494601 -1.6163932e-16 -0.00034594785
0.84729103 -0.05 0.026418772 0.01095839 4.0627641e-16 -0.0005038879
0.84105069 -0.05 0.027099973 0.011290147 4.7305171e-16 -0.00058131146
0.83480973 -0.05 0.027775484 0.011988829 4.4322063e-17 -0.00090528884
0.82856817 -0.05 0.028445477 0.010627843 -2.3375414e-16 -0.00076686194
0.82232603 -0.05 0.029109916 0.011644278 7.5091964e-16 -0.00087100693
0.81608329 -0.05 0.029768753 0.010135753 -2.7144007e-16 -0.00070161746
0.80983996 -0.05 0.030422068 0.010727268 -1.2113182e-16 -0.00073098058
0.80359607 -0.05 0.031069869 0.010184188 1.0485574e-16 -0.00070911654
0.79735161 -0.05 0.03171219 0.0096265208 1.4657569e-16 -0.0006335759
0.79110658 -0.05 0.032348985 0.0086657262 -4.0205359e-16 -0.00053000351
0.78486099 -0.05 0.032980341 0.0073070245 1.0064725e-15 -0.00037822184
0.77861487 -0.05 0.033606222 0.0055271244 -4.9320998e-16 -0.0001849766
0.77236818 -0.05 0.034226596 0.0033577176 1.6053492e-16 3.0834624e-05
0.76612097 -0.05 0.034841526 0.00075719359 5.5169141e-16 0.00028375524
0.75987321 -0.05 0.035450997 -0.0022541557 -1.3129264e-16 0.00051167645
0.75362492 -0.05 0.036054999 -0.0046535958 -2.0507429e-16 0.00074446968
0.74737611 -0.05 0.036653504 -0.0072597011 3.0372053e-16 0.00099243003
0.74112676 -0.05 0.037246496 -0.010247903 3.0117645e-16 0.0012707665
0.7348769 -0.05 0.037833961 -0.013639728 -7.5936769e-17 0.0015773433
0.72862652 -0.05 0.038415864 -0.017438834 -2.1211692e-16 0.0019150283
0.72237563 -0.05 0.038992238 -0.021666393 -3.5760787e-16 0.0022842844
0.71612423 -0.05 0.039563112 -0.026425241 -3.7189295e-16 0.0026900654
0.70987232 -0.05 0.040128312 -0.031700479 -2.4619141e-16 0.0031309659
0.70361989 -0.05 0.040687889 -0.037551827 -2.0932697e-16 0.0036014988
0.69736697 -0.05 0.041241809 -0.044093748 3.7964613e-17 0.004125525
0.69111353 -0.05 0.041789978 -0.051388956 2.4162962e-16 0.0046918813
0.68485961 -0.05 0.042332453 -0.059642624 -6.2924422e-17 0.0053217877
0.67860518 -0.05 0.042869137 -0.068775745 1.0689634e-16 0.0060057704
0.67235027 -0.05 0.043400037 -0.078891906 7.6328054e-19 0.0067508109
0.66609484 -0.05 0.043925039 -0.089969633 -1.9448786e-16 0.0075559473
0.65983892 -0.05 0.044444044 -0.10196734 6.0891862e-17 0.0084115068
0.65358251 -0.05 0.044957134 -0.1150376 -1.7809841e-16 0.0093219462
0.64732562 -0.05 0.045464223 -0.12925601 -2.8292094e-16 0.010295461
0.64106822 -0.05 0.045965146 -0.14460346 4.5804529e-16 0.011325496
0.63481033 -0.05 0.046459871 -0.16109881 -2.2164764e-16 0.012410793
0.62855196 -0.05 0.046948399 -0.17881648 -5.1796619e-17 0.013550934
0.6222931 -0.05 0.047430591 -0.19779256 1.7089181e-16 0.014746151
0.61603375 -0.05 0.047906365 -0.21816091 1.1663902e-17 0.0160067
0.60977391 -0.05 0.048375716 -0.24074103 1.3454513e-16 0.017389561
0.60351358 -0.05 0.048838501 -0.266124 -4.1481543e-17 0.018864973
0.59725277 -0.05 0.049294647 -0.29313415 6.1713954e-17 0.020435175
0.59099146 -0.05 0.049744071 -0.32191642 1.0920281e-16 0.022067266
0.58472967 -0.05 0.050186681 -0.35259307 1.6517353e-16 0.023751881
0.5784674 -0.05 0.050622361 -0.38536845 4.6348932e-17 0.025504172
0.57220464 -0.05 0.051050968 -0.42006662 -1.4806745e-16 0.027307915
0.56594139 -0.05 0.051472468 -0.45692084 2.0076736e-16 0.029168091
0.55967767 -0.05 0.051886739 -0.49598569 -5.8932916e-18 0.031072292
0.55341346 -0.05 0.052293619 -0.53741293 1.1691047e-16 0.033021757
0.54714876 -0.05 0.052693037 -0.58143974 -2.231757e-16 0.035013581
0.54088359 -0.05 0.05308483 -0.62811646 2.0236753e-17 0.037050701
0.53461794 -0.05 0.05346886 -0.67730512 8.6228993e-17 0.039114545
0.52835182 -0.05 0.053845055 -0.72942598 -2.505362e-16 0.041208765
0.52208521 -0.05 0.054213243 -0.78463218 -3.6972999e-16 0.04331861
0.51581813 -0.05 0.054573283 -0.84343809 4.4328636e-16 0.045466805
0.50955058 -0.05 0.054925006 -0.90549665 1.2557732e-17 0.047615334
0.50328257 -0.05 0.055268274 -0.97088867 1.5912006e-16 0.049767202
0.49701408 -0.05 0.055602965 -1.0398386 1.7592427e-16 0.051878587
0.49074514 -0.05 0.05592888 -1.1129467 -9.8035349e-17 0.053970431
0.48447573 -0.05 0.056245816 -1.1921641 1.1559435e-16 0.056257885
0.47820588 -0.05 0.05655365 -1.2835286 7.8161646e-17 0.059087643
0.47193557 -0.05 0.056852242 -1.3877245 9.1534842e-17 0.061959549
0.46566482 -0.05 0.057141341 -1.4960546 1.1643416e-17 0.064389717
0.45939363 -0.05 0.057420735 -1.6079518 -5.5671212e-17 0.066635511
0.45312202 -0.05 0.057690261 -1.7244281 -6.8206044e-17 0.068715429
0.44684997 -0.05 0.057949734 -1.8458847 5.181126e-17 0.069952958
0.4405775 -0.05 0.058198929 -1.9724251 1.7116222e-16 0.070866155
0.43430464 -0.05 0.058437606 -2.1046798 1.3472449e-16 0.072005853
0.42803137 -0.05 0.058665555 -2.243222 -1.273845e-16 0.072987904
0.4217577 -0.05 0.058882577 -2.3878293 5.664248e-17 0.073595177
0.41548367 -0.05 0.059088422 -2.5386387 2.7276871e-17 0.073774642
0.40920927 -0.05 0.059282813 -2.6958774 -2.3772827e-17 0.073465957
0.40293453 -0.05 0.059465525 -2.8602203 9.967715e-17 0.072672548
0.39665944 -0.05 0.059636274 -3.0311237 -1.4348504e-16 0.071251061
0.39038403 -0.05 0.05979475 -3.2083281 8.7394447e-17 0.069201649
0.38410833 -0.05 0.059940737 -3.3924814 1.037182e-17 0.066440969
0.37783234 -0.05 0.060073996 -3.5844179 3.6537619e-17 0.062903262
0.37155607 -0.05 0.060194128 -3.7833071 -2.4866801e-17 0.058441628
0.36527956 -0.05 0.060300814 -3.9887595 6.5147525e-17 0.0531095
0.35900285 -0.05 0.060393812 -4.201679 1.2873744e-16 0.04672415
0.35272594 -0.05 0.060472785 -4.4225275 -2.4131603e-17 0.039301376
0.34644886 -0.05 0.060537376 -4.6509038 -1.7758242e-17 0.030885426
0.34017166 -0.05 0.0605872 -4.886324 -4.9769378e-17 0.02098134
0.33389434 -0.05 0.060621926 -5.1288927 -9.5461777e-18 0.0092116754
0.32761697 -0.05 0.060641164 -5.379202 -5.5119767e-19 -0.0038556933
0.32133957 -0.05 0.060644491 -5.6368277 -3.2774355e-18 -0.018777853
0.31506217 -0.05 0.060631517 -5.9006281 -2.4414631e-17 -0.035726895
0.30878483 -0.05 0.060601826 -6.1727391 -3.2477304e-19 -0.053679696