# yPlus  FACE_DATA 448
# x y z  yPlus
0.29778657 -0.05 -0.059506912 22.904968
0.29214952 -0.05 -0.059552501 22.602086
0.28659351 -0.05 -0.059582865 22.269108
0.28111742 -0.05 -0.059598226 21.949042
0.27572014 -0.05 -0.059598864 21.643147
0.27040058 -0.05 -0.059585088 21.350443
0.26515763 -0.05 -0.059557184 21.07118
0.25999026 -0.05 -0.059515407 20.804914
0.2548974 -0.05 -0.059460058 20.552237
0.24987803 -0.05 -0.059391395 20.312398
0.24493112 -0.05 -0.059309613 20.083557
0.24005568 -0.05 -0.059215001 19.864554
0.23525071 -0.05 -0.059107812 19.653916
0.23051523 -0.05 -0.05898832 19.450821
0.22584828 -0.05 -0.05885678 19.256363
0.22124894 -0.05 -0.058713374 19.06951
0.21671624 -0.05 -0.058558376 18.890846
0.21224926 -0.05 -0.05839202 18.720663
0.20784712 -0.05 -0.058214447 18.557452
0.20350892 -0.05 -0.058025935 18.401686
0.19923377 -0.05 -0.057826704 18.253554
0.19502081 -0.05 -0.057616997 18.112744
0.19086916 -0.05 -0.057397027 17.979794
0.18677801 -0.05 -0.057166888 17.853009
0.18274651 -0.05 -0.056926842 17.73293
0.17877386 -0.05 -0.056677089 17.620158
0.17485924 -0.05 -0.056417798 17.512896
0.17100186 -0.05 -0.056149188 17.412276
0.16720093 -0.05 -0.055871427 17.31739
0.16345569 -0.05 -0.055584662 17.228469
0.15976537 -0.05 -0.055289032 17.144407
0.15612923 -0.05 -0.05498477 17.065944
0.15254654 -0.05 -0.054671999 16.993181
0.14901657 -0.05 -0.054350868 16.925405
0.1455386 -0.05 -0.054021535 16.86407
0.14211193 -0.05 -0.053684101 16.807499
0.13873588 -0.05 -0.053338732 16.755585
0.13540976 -0.05 -0.052985551 16.707969
0.13213289 -0.05 -0.052624736 16.665172
0.12890462 -0.05 -0.052256402 16.627465
0.12572431 -0.05 -0.051880583 16.592583
0.1225913 -0.05 -0.051497469 16.561402
0.11950496 -0.05 -0.051107187 16.536215
0.11646469 -0.05 -0.05070976 16.514923
0.1134699 -0.05 -0.050305267 16.497428
0.11051996 -0.05 -0.049893847 16.48381
0.1076143 -0.05 -0.049475536 16.474871
0.10475234 -0.05 -0.049050435 16.467995
0.1019335 -0.05 -0.048618703 16.465942
0.099157244 -0.05 -0.048180288 16.466538
0.096423027 -0.05 -0.047735248 16.468618
0.093730296 -0.05 -0.047283731 16.475873
0.091078549 -0.05 -0.046825658 16.487355
0.088467268 -0.05 -0.046361099 16.500047
0.085895942 -0.05 -0.04589012 16.516936
0.083364077 -0.05 -0.045412755 16.534709
0.080871185 -0.05 -0.044929047 16.557775
0.078416819 -0.05 -0.044438896 16.583237
0.076000521 -0.05 -0.043942296 16.611914
0.073621823 -0.05 -0.043439321 16.643733
0.071280281 -0.05 -0.042929996 16.678958
0.068975491 -0.05 -0.042414207 16.714427
0.066707039 -0.05 -0.041891919 16.748959
0.064474516 -0.05 -0.041363128 16.785608
0.062277543 -0.05 -0.040827744 16.826505
0.060115751 -0.05 -0.040285686 16.872329
0.057988777 -0.05 -0.039736891 16.922668
0.055896279 -0.05 -0.039181262 16.975318
0.053837907 -0.05 -0.038618763 17.028732
0.051813368 -0.05 -0.038049208 17.08475
0.049822372 -0.05 -0.037472446 17.13932
0.047864616 -0.05 -0.036888413 17.199937
0.045939844 -0.05 -0.036296927 17.263551
0.044047819 -0.05 -0.035697802 17.328298
0.042188348 -0.05 -0.035090763 17.392687
0.04036123 -0.05 -0.034475618 17.45771
0.038566267 -0.05 -0.033852216 17.531823
0.036803326 -0.05 -0.033220273 17.618166
0.035072301 -0.05 -0.032579481 17.709668
0.033373118 -0.05 -0.031929526 17.802302
0.031705723 -0.05 -0.031270092 17.891592
0.030070108 -0.05 -0.030600828 17.981244
0.028466326 -0.05 -0.0299213 18.076241
0.026894445 -0.05 -0.029231128 18.175699
0.025354614 -0.05 -0.028529824 18.265658
0.023847038 -0.05 -0.027816871 18.349569
0.022371978 -0.05 -0.027091759 18.447268
0.020929812 -0.05 -0.026353858 18.567713
0.019520945 -0.05 -0.025602593 18.680917
0.018145948 -0.05 -0.024837238 18.742177
0.016805477 -0.05 -0.02405703 18.712986
0.015500283 -0.05 -0.023261222 18.626616
0.014231303 -0.05 -0.022448961 18.535041
0.012999659 -0.05 -0.021619382 18.5376
0.011806665 -0.05 -0.020771582 18.717595
0.010653865 -0.05 -0.019904553 19.071381
0.0095429991 -0.05 -0.019017231 19.611267
0.0084761252 -0.05 -0.018108742 20.33054
0.0074557252 -0.05 -0.017178228 21.26343
0.0064845217 -0.05 -0.016224576 22.223154
0.0055655658 -0.05 -0.015247033 23.029233
0.0047025884 -0.05 -0.014245397 23.59634
0.0038994562 -0.05 -0.013219257 23.894149
0.0031602581 -0.05 -0.01216875 23.889082
0.0024897455 -0.05 -0.011095148 23.540329
0.001892507 -0.05 -0.0099998792 22.863911
0.0013729079 -0.05 -0.0088853998 21.815361
0.00093491466 -0.05 -0.0077557067 20.355275
0.00058165118 -0.05 -0.0066151689 18.494201
0.00031492323 -0.05 -0.005469074 16.21214
0.00013487505 -0.05 -0.0043234786 13.435602
4.0071002e-05 -0.05 -0.0031844628 10.168528
0.99685745 -0.05 0.0073699415 71.848435
0.99065401 -0.05 0.006409083 65.378497
0.98444949 -0.05 0.0054552008 65.318421
0.97824391 -0.05 0.0045082685 65.079806
0.9720373 -0.05 0.00356818 64.864837
0.96582967 -0.05 0.0026347772 64.621954
0.95962103 -0.05 0.0017080772 64.374797
0.95341141 -0.05 0.00078801678 64.116916
0.94720084 -0.05 -0.00012555864 63.852782
0.94098932 -0.05 -0.0010327333 63.578683
0.93477688 -0.05 -0.0019335122 63.298898
0.92856352 -0.05 -0.002827955 63.011917
0.92234925 -0.05 -0.0037161384 62.720173
0.91613411 -0.05 -0.0045980971 62.42208
0.90991811 -0.05 -0.0054739821 62.121103
0.90370125 -0.05 -0.0063437905 61.816673
0.89748355 -0.05 -0.007207554 61.509947
0.89126503 -0.05 -0.0080654081 61.199144
0.8850457 -0.05 -0.0089173665 60.887337
0.87882556 -0.05 -0.0097633727 60.572715
0.87260462 -0.05 -0.010603564 60.256128
0.86638292 -0.05 -0.011438007 59.936431
0.86016044 -0.05 -0.012266675 59.614356
0.85393721 -0.05 -0.013089654 59.288471
0.84771324 -0.05 -0.013907006 58.958887
0.84148854 -0.05 -0.014718716 58.623814
0.83526309 -0.05 -0.015524751 58.284951
0.82903693 -0.05 -0.016325283 57.942718
0.82281006 -0.05 -0.017120273 57.599325
0.81658248 -0.05 -0.017909675 57.254487
0.81035421 -0.05 -0.018693567 56.910483
0.80412524 -0.05 -0.019471961 56.566806
0.79789559 -0.05 -0.020244886 56.224139
0.79166527 -0.05 -0.021012298 55.880534
0.78543428 -0.05 -0.021774285 55.537471
0.77920262 -0.05 -0.022530809 55.193017
0.7729703 -0.05 -0.02328184 54.845257
0.76673732 -0.05 -0.024027438 54.492283
0.7605037 -0.05 -0.02476759 54.134479
0.75426943 -0.05 -0.025502284 53.771997
0.74803452 -0.05 -0.026231495 53.406989
0.74179896 -0.05 -0.026955205 53.041435
0.73556276 -0.05 -0.0276734 52.678424
0.72932594 -0.05 -0.028386045 52.317392
0.72308849 -0.05 -0.029093171 51.958494
0.71685042 -0.05 -0.029794811 51.601699
0.7106117 -0.05 -0.030490789 51.245283
0.70437237 -0.05 -0.031181155 50.88655
0.69813241 -0.05 -0.031865876 50.523254
0.69189183 -0.05 -0.032544859 50.151374
0.68565063 -0.05 -0.033218158 49.772032
0.67940881 -0.05 -0.033885678 49.38708
0.67316637 -0.05 -0.034547427 49.002091
0.66692332 -0.05 -0.035203289 48.620123
0.66067964 -0.05 -0.035853165 48.242822
0.65443535 -0.05 -0.036497138 47.869942
0.64819044 -0.05 -0.037135122 47.499827
0.64194491 -0.05 -0.037766952 47.128344
0.63569875 -0.05 -0.038392595 46.751328
0.62945198 -0.05 -0.039012052 46.362631
0.62320458 -0.05 -0.039625186 45.959702
0.61695656 -0.05 -0.040231913 45.546839
0.61070793 -0.05 -0.040832228 45.133306
0.60445866 -0.05 -0.04142599 44.723198
0.59820877 -0.05 -0.042013124 44.316203
0.59195824 -0.05 -0.042593547 43.912046
0.58570709 -0.05 -0.043167168 43.509364
0.57945531 -0.05 -0.043733871 43.10275
0.57320289 -0.05 -0.044293512 42.683921
0.56694986 -0.05 -0.044846058 42.242975
0.56069618 -0.05 -0.045391387 41.77732
0.55444186 -0.05 -0.045929337 41.296422
0.54818691 -0.05 -0.046459837 40.817517
0.54193131 -0.05 -0.046982723 40.342888
0.53567507 -0.05 -0.047497857 39.874036
0.5294182 -0.05 -0.04800517 39.410248
0.52316067 -0.05 -0.048504486 38.949623
0.51690251 -0.05 -0.048995666 38.485426
0.51064369 -0.05 -0.04947854 38.004619
0.50438423 -0.05 -0.049952972 37.49197
0.49812414 -0.05 -0.050418838 36.95019
0.4918634 -0.05 -0.05087594 36.409502
0.485602 -0.05 -0.051324074 35.871174
0.47933996 -0.05 -0.051763117 35.337924
0.47307729 -0.05 -0.05219293 34.809196
0.46681396 -0.05 -0.052613263 34.281142
0.46055 -0.05 -0.053023901 33.75457
0.4542854 -0.05 -0.053424681 33.228687
0.44802016 -0.05 -0.05381542 32.703648
0.44175429 -0.05 -0.054195892 32.177843
0.4354878 -0.05 -0.054565858 31.651516
0.42922067 -0.05 -0.054925105 31.126742
0.42295293 -0.05 -0.055273436 30.610291
0.41668458 -0.05 -0.0556106 30.105004
0.41041563 -0.05 -0.055936322 29.613099
0.40414608 -0.05 -0.056250373 29.134776
0.39787595 -0.05 -0.056552471 28.669719
0.39160523 -0.05 -0.056842305 28.221821
0.38533395 -0.05 -0.05711966 27.795172
0.37906213 -0.05 -0.057384295 27.386713
0.37278976 -0.05 -0.057635814 26.99242
0.36651687 -0.05 -0.057873892 26.608545
0.36024347 -0.05 -0.05809829 26.236714
0.35396959 -0.05 -0.05830867 25.874477
0.34769524 -0.05 -0.058504675 25.522124
0.34142045 -0.05 -0.058685919 25.177553
0.33514524 -0.05 -0.058852071 24.843057
0.32886965 -0.05 -0.05900274 24.516713
0.32259369 -0.05 -0.059137501 24.198044
0.3163174 -0.05 -0.059255964 23.886678
0.31004082 -0.05 -0.059357715 23.586665
0.30376398 -0.05 -0.059442318 23.239481
0.29653015 -0.05 0.060494414 22.40957
0.29089338 -0.05 0.060421965 22.675762
0.28533795 -0.05 0.060335991 23.000862
0.27986274 -0.05 0.060236693 23.313015
0.27446664 -0.05 0.060124323 23.621676
0.26914852 -0.05 0.05999917 23.925451
0.2639073 -0.05 0.059861495 24.221969
0.25874194 -0.05 0.059711534 24.511861
0.25365137 -0.05 0.059549565 24.795695
0.24863453 -0.05 0.059375821 25.075391
0.24369042 -0.05 0.05919048 25.348817
0.23881802 -0.05 0.058993808 25.616133
0.23401635 -0.05 0.058786036 25.874551
0.22928442 -0.05 0.058567421 26.120244
0.22462125 -0.05 0.058338194 26.354963
0.22002591 -0.05 0.058098519 26.577268
0.21549744 -0.05 0.057848649 26.785333
0.21103493 -0.05 0.057588801 26.982988
0.20663748 -0.05 0.057319096 27.174641
0.20230418 -0.05 0.057039792 27.367672
0.19803414 -0.05 0.056751093 27.56141
0.19382648 -0.05 0.056453221 27.750517
0.18968035 -0.05 0.056146374 27.925204
0.18559492 -0.05 0.055830626 28.074784
0.18156933 -0.05 0.055506221 28.198044
0.17760278 -0.05 0.055173344 28.303132
0.17369445 -0.05 0.054832147 28.4152
0.16984353 -0.05 0.054482829 28.551765
0.16604925 -0.05 0.054125546 28.714826
0.16231083 -0.05 0.053760427 28.894262
0.15862752 -0.05 0.053387594 29.090011
0.15499855 -0.05 0.053007267 29.308663
0.1514232 -0.05 0.052619551 29.557973
0.14790072 -0.05 0.05222458 29.835278
0.14443041 -0.05 0.051822498 30.129758
0.14101156 -0.05 0.051413391 30.428592
0.13764347 -0.05 0.05099741 30.724251
0.13432548 -0.05 0.050574666 31.013276
0.13105688 -0.05 0.050145319 31.292455
0.12783703 -0.05 0.049709472 31.561795
0.12466529 -0.05 0.049267148 31.819168
0.12154098 -0.05 0.048818519 32.064799
0.11846349 -0.05 0.048363702 32.299114
0.11543222 -0.05 0.047902705 32.521386
0.11244654 -0.05 0.047435596 32.731224
0.10950586 -0.05 0.0469625 32.929309
0.1066096 -0.05 0.046483444 33.115715
0.10375717 -0.05 0.045998512 33.289653
0.10094799 -0.05 0.045507855 33.45426
0.098181523 -0.05 0.045011407 33.609253
0.095457221 -0.05 0.044509216 33.75269
0.092774535 -0.05 0.044001419 33.887252
0.090132961 -0.05 0.043487925 34.012248
0.087531979 -0.05 0.042968792 34.125591
0.084971078 -0.05 0.042444078 34.23061
0.082449763 -0.05 0.041913805 34.325785
0.079967546 -0.05 0.041378009 34.41458
0.07752398 -0.05 0.040836575 34.493958
0.075118608 -0.05 0.040289492 34.562157
0.072750963 -0.05 0.039736824 34.619155
0.070420599 -0.05 0.039178582 34.666482
0.068127114 -0.05 0.03861465 34.703596
0.065870095 -0.05 0.038044979 34.728554
0.063649133 -0.05 0.03746956 34.742901
0.061463851 -0.05 0.036888295 34.746313
0.059313883 -0.05 0.036301092 34.738335
0.057198866 -0.05 0.035707883 34.719376
0.055118461 -0.05 0.035108562 34.688407
0.053072317 -0.05 0.034503089 34.645345
0.051060147 -0.05 0.03389127 34.593814
0.049081665 -0.05 0.033272947 34.527496
0.047136565 -0.05 0.032648051 34.45148
0.045224599 -0.05 0.032016394 34.36368
0.043345533 -0.05 0.031377785 34.265387
0.04149918 -0.05 0.030731946 34.155302
0.039685343 -0.05 0.03007868 34.032522
0.037903826 -0.05 0.029417833 33.897416
0.036154502 -0.05 0.028749115 33.750829
0.034437274 -0.05 0.02807222 33.594034
0.032752072 -0.05 0.02738683 33.425276
0.031098849 -0.05 0.02669263 33.242873
0.029477606 -0.05 0.025989267 33.048659
0.027888403 -0.05 0.025276308 32.841656
0.026331318 -0.05 0.024553375 32.621102
0.024806508 -0.05 0.023819985 32.388458
0.023314191 -0.05 0.023075623 32.1405
0.021854636 -0.05 0.022319785 31.876883
0.020428236 -0.05 0.021551849 31.598406
0.019035408 -0.05 0.02077125 31.301034
0.017676737 -0.05 0.019977273 30.989212
0.016352896 -0.05 0.019169171 30.652927
0.01506465 -0.05 0.018346208 30.296811
0.013812956 -0.05 0.017507557 29.914533
0.012598952 -0.05 0.016652371 29.505613
0.01142397 -0.05 0.015779778 29.058132
0.010289576 -0.05 0.014888803 28.569546
0.0091975328 -0.05 0.013978416 28.032892
0.0081499145 -0.05 0.013047788 27.441532
0.0071492211 -0.05 0.012096113 26.780135
0.0061981978 -0.05 0.011122336 26.028764
0.005299911 -0.05 0.010125765 25.15763
0.0044580949 -0.05 0.0091062805 24.143003
0.0036766239 -0.05 0.0080635492 22.9594
0.0029595832 -0.05 0.0069977947 21.565144
0.0023116965 -0.05 0.005910389 19.911338
0.0017375215 -0.05 0.004802856 17.969211
0.0012413711 -0.05 0.0036777415 15.673882
0.00082712716 -0.05 0.0025391253 12.908633
0.00049782149 -0.05 0.001391441 9.7095853
0.00025514875 -0.05 0.00024001268 6.4568345
9.9126308e-05 -0.05 -0.0009091014 2.7471029
2.8191565e-05 -0.05 -0.0020498525 7.1187576
0.99684803 -0.05 0.0082692446 3.4900291
0.99062584 -0.05 0.009100006 0.81789978
0.98440271 -0.05 0.0099237698 0.88022642
0.97817866 -0.05 0.010740563 0.38148719
0.97195372 -0.05 0.011550493 0.62169172
0.96572791 -0.05 0.012353717 0.42281603
0.95950123 -0.05 0.013150218 0.54944951
0.95327371 -0.05 0.013940061 0.51930794
0.94704537 -0.05 0.0147234 0.55243519
0.94081622 -0.05 0.01550032 0.55703831
0.93458628 -0.05 0.016270827 0.57206549
0.92835555 -0.05 0.017034979 0.58182449
0.92212405 -0.05 0.017792855 0.59255052
0.9158918 -0.05 0.018544489 0.60219884
0.90965882 -0.05 0.019290032 0.61440472
0.90342511 -0.05 0.020029482 0.62248398
0.8971907 -0.05 0.020762871 0.63410926
0.89095558 -0.05 0.021490335 0.64117428
0.88471978 -0.05 0.022211887 0.65165465
0.87848329 -0.05 0.022927471 0.65878275
0.87224612 -0.05 0.023637225 0.66766169
0.86600831 -0.05 0.024341217 0.68148555
0.85976985 -0.05 0.025039419 0.70454102
0.85353075 -0.05 0.025731916 0.7332439
0.84729103 -0.05 0.026418772 0.90049517
0.84105069 -0.05 0.027099973 0.91452506
0.83480973 -0.05 0.027775484 0.94287351
0.82856817 -0.05 0.028445477 0.88802099
0.82232603 -0.05 0.029109916 0.9292702
0.81608329 -0.05 0.029768753 0.86733585
0.80983996 -0.05 0.030422068 0.8918691
0.80359607 -0.05 0.031069869 0.86960428
0.79735161 -0.05 0.03171219 0.84496621
0.79110658 -0.05 0.032348985 0.80171406
0.78486099 -0.05 0.032980341 0.73572338
0.77861487 -0.05 0.033606222 0.6396531
0.77236818 -0.05 0.034226596 0.49798407
0.76612097 -0.05 0.034841526 0.2396731
0.75987321 -0.05 0.035450997 0.4130359
0.75362492 -0.05 0.036054999 0.59076174
0.74737611 -0.05 0.036653504 0.73666803
0.74112676 -0.05 0.037246496 0.87472565
0.7348769 -0.05 0.037833961 1.0086067
0.72862652 -0.05 0.038415864 1.1402877
0.72237563 -0.05 0.038992238 1.2707027
0.71612423 -0.05 0.039563112 1.4032241
0.70987232 -0.05 0.040128312 1.5366669
0.70361989 -0.05 0.040687889 1.6725211
0.69736697 -0.05 0.041241809 1.8120929
0.69111353 -0.05 0.041789978 1.9561382
0.68485961 -0.05 0.042332453 2.1072352
0.67860518 -0.05 0.042869137 2.262842
0.67235027 -0.05 0.043400037 2.4234392
0.66609484 -0.05 0.043925039 2.587958
0.65983892 -0.05 0.044444044 2.7550728
0.65358251 -0.05 0.044957134 2.9264219
0.64732562 -0.05 0.045464223 3.1018917
0.64106822 -0.05 0.045965146 3.2808403
0.63481033 -0.05 0.046459871 3.4629042
0.62855196 -0.05 0.046948399 3.6483711
0.6222931 -0.05 0.047430591 3.8370641
0.61603375 -0.05 0.047906365 4.0297803
0.60977391 -0.05 0.048375716 4.2332779
0.60351358 -0.05 0.048838501 4.4508387
0.59725277 -0.05 0.049294647 4.6712794
0.59099146 -0.05 0.049744071 4.8952528
0.58472967 -0.05 0.050186681 5.1232748
0.5784674 -0.05 0.050622361 5.3561099
0.57220464 -0.05 0.051050968 5.5921498
0.56594139 -0.05 0.051472468 5.8322892
0.55967767 -0.05 0.051886739 6.076565
0.55341346 -0.05 0.052293619 6.3252398
0.54714876 -0.05 0.052693037 6.5794288
0.54088359 -0.05 0.05308483 6.8384826
0.53461794 -0.05 0.05346886 7.101358
0.52835182 -0.05 0.053845055 7.3695562
0.52208521 -0.05 0.054213243 7.6435459
0.51581813 -0.05 0.054573283 7.9248517
0.50955058 -0.05 0.054925006 8.2113444
0.50328257 -0.05 0.055268274 8.5026633
0.49701408 -0.05 0.055602965 8.7996691
0.49074514 -0.05 0.05592888 9.1037968
0.48447573 -0.05 0.056245816 9.4224456
0.47820588 -0.05 0.05655365 9.7768049
0.47193557 -0.05 0.056852242 10.166063
0.46566482 -0.05 0.057141341 10.555325
0.45939363 -0.05 0.057420735 10.943013
0.45312202 -0.05 0.057690261 11.332342
0.44684997 -0.05 0.057949734 11.724771
0.4405775 -0.05 0.058198929 12.119844
0.43430464 -0.05 0.058437606 12.51961
0.42803137 -0.05 0.058665555 12.924932
0.4217577 -0.05 0.058882577 13.335148
0.41548367 -0.05 0.059088422 13.749641
0.40920927 -0.05 0.059282813 14.169026
0.40293453 -0.05 0.059465525 14.594169
0.39665944 -0.05 0.059636274 15.024032
0.39038403 -0.05 0.05979475 15.456759
0.38410833 -0.05 0.059940737 15.894193
0.37783234 -0.05 0.060073996 16.337257
0.37155607 -0.05 0.060194128 16.784525
0.36527956 -0.05 0.060300814 17.233911
0.35900285 -0.05 0.060393812 17.687771
0.35272594 -0.05 0.060472785 18.146157
0.34644886 -0.05 0.060537376 18.608922
0.34017166 -0.05 0.0605872 19.073691
0.33389434 -0.05 0.060621926 19.541402
0.32761697 -0.05 0.060641164 20.011943
0.32133957 -0.05 0.060644491 20.485415
0.31506217 -0.05 0.060631517 20.958662
0.30878483 -0.05 0.060601826 21.435757
0.3025076 -0.05 0.060554988 21.974806
