# p  FACE_DATA 448
# x y z  p
0.29599185 -0.05 -0.060904675 99581.021
0.29035594 -0.05 -0.060782241 99576.285
0.28480149 -0.05 -0.060647004 99572.27
0.27932737 -0.05 -0.060499153 99568.413
0.27393248 -0.05 -0.060338935 99564.628
0.26861568 -0.05 -0.060166624 99560.955
0.26337589 -0.05 -0.059982474 99557.336
0.25821206 -0.05 -0.059786711 99554.012
0.25312312 -0.05 -0.059579604 99550.722
0.24810802 -0.05 -0.059361378 99547.676
0.24316574 -0.05 -0.059132198 99544.69
0.23829529 -0.05 -0.058892323 99541.845
0.23349565 -0.05 -0.058641978 99539.157
0.22876584 -0.05 -0.058381406 99536.632
0.22410489 -0.05 -0.058110835 99534.25
0.21951186 -0.05 -0.057830417 99532.1
0.21498578 -0.05 -0.057540398 99529.859
0.21052576 -0.05 -0.057240985 99527.797
0.20613087 -0.05 -0.056932294 99525.961
0.20180021 -0.05 -0.056614572 99524.258
0.1975329 -0.05 -0.056288017 99522.742
0.19332805 -0.05 -0.055952843 99521.276
0.18918481 -0.05 -0.055609238 99519.988
0.18510233 -0.05 -0.055257271 99518.964
0.18107978 -0.05 -0.05489718 99517.989
0.17711634 -0.05 -0.05452914 99517.309
0.17321118 -0.05 -0.054153295 99516.659
0.16936352 -0.05 -0.053769841 99516.098
0.16557255 -0.05 -0.053378923 99515.479
0.16183752 -0.05 -0.052980665 99515.127
0.15815766 -0.05 -0.052575183 99514.987
0.1545322 -0.05 -0.052162688 99514.961
0.15096043 -0.05 -0.051743279 99515.182
0.1474416 -0.05 -0.051317086 99515.493
0.14397498 -0.05 -0.050884244 99516.064
0.1405599 -0.05 -0.050444835 99516.888
0.13719564 -0.05 -0.049999002 99517.927
0.13388153 -0.05 -0.049546849 99519.25
0.13061686 -0.05 -0.049088532 99520.603
0.127401 -0.05 -0.048624149 99522.258
0.1242333 -0.05 -0.048153712 99524.177
0.1211131 -0.05 -0.047677395 99526.129
0.11803977 -0.05 -0.047195304 99528.278
0.1150127 -0.05 -0.046707444 99530.673
0.11203128 -0.05 -0.046213876 99533.302
0.10909492 -0.05 -0.045714719 99536.119
0.10620302 -0.05 -0.045209997 99539.362
0.103355 -0.05 -0.044699788 99542.649
0.10055028 -0.05 -0.044184238 99546.076
0.097788322 -0.05 -0.043663276 99549.995
0.095068581 -0.05 -0.043136945 99553.99
0.092390503 -0.05 -0.042605377 99558.159
0.089753587 -0.05 -0.042068477 99562.895
0.087157311 -0.05 -0.041526298 99567.71
0.084601163 -0.05 -0.040978895 99572.985
0.08208465 -0.05 -0.040426284 99578.282
0.079607283 -0.05 -0.039868495 99583.953
0.077168614 -0.05 -0.039305412 99590.116
0.074768189 -0.05 -0.038737019 99596.693
0.072405538 -0.05 -0.038163375 99603.443
0.070080216 -0.05 -0.03758449 99610.524
0.067791822 -0.05 -0.037000241 99618.149
0.065539943 -0.05 -0.036410577 99626.058
0.063324172 -0.05 -0.035815484 99634.318
0.061144131 -0.05 -0.035214862 99643.125
0.058999455 -0.05 -0.034608616 99652.528
0.056889782 -0.05 -0.033996675 99662.42
0.054814773 -0.05 -0.033378928 99672.891
0.05277408 -0.05 -0.032755333 99683.678
0.050767415 -0.05 -0.032125693 99695.459
0.048794493 -0.05 -0.031489849 99707.684
0.046855012 -0.05 -0.030847728 99720.635
0.044948722 -0.05 -0.030199139 99734.183
0.043075394 -0.05 -0.029543893 99748.597
0.041234841 -0.05 -0.028881706 99764.052
0.039426868 -0.05 -0.028212379 99780.379
0.037651283 -0.05 -0.027535758 99797.516
0.035907958 -0.05 -0.026851553 99815.796
0.0341968 -0.05 -0.026159456 99835.172
0.032517743 -0.05 -0.025459149 99855.942
0.030870742 -0.05 -0.024750315 99877.895
0.029255798 -0.05 -0.024032601 99901.412
0.027672981 -0.05 -0.023305577 99926.533
0.026122369 -0.05 -0.022568864 99953.271
0.024604122 -0.05 -0.02182198 99982.002
0.023118465 -0.05 -0.021064413 100012.73
0.021665671 -0.05 -0.020295662 100045.68
0.020246137 -0.05 -0.019515106 100081.18
0.018860286 -0.05 -0.018722187 100119.15
0.01750871 -0.05 -0.017916192 100160.41
0.016192088 -0.05 -0.017096381 100204.66
0.01491119 -0.05 -0.016262026 100252.37
0.013666983 -0.05 -0.015412307 100303.87
0.01246061 -0.05 -0.01454639 100360.09
0.011293413 -0.05 -0.01366341 100420.89
0.010166965 -0.05 -0.01276241 100486.26
0.0090830382 -0.05 -0.011842374 100556.82
0.0080437141 -0.05 -0.010902493 100632.5
0.0070514997 -0.05 -0.0099419805 100713.41
0.0061091496 -0.05 -0.0089598079 100800.11
0.005219736 -0.05 -0.0079553106 100891.77
0.0043869939 -0.05 -0.0069284005 100987.61
0.0036148009 -0.05 -0.00587878 101086.29
0.0029072396 -0.05 -0.0048067085 101185.54
0.0022690218 -0.05 -0.0037136 101282.98
0.0017046913 -0.05 -0.0026010186 101373.85
0.0012185381 -0.05 -0.0014715483 101452.75
0.00081440795 -0.05 -0.00032930328 101517.56
0.00049529318 -0.05 0.00082125618 101563.17
0.00026284111 -0.05 0.0019747913 101584
0.00011701541 -0.05 0.0031252439 101579.23
5.6199898e-05 -0.05 0.0042665793 101547.8
0.99674533 -0.05 -0.014892139 100034.53
0.99051602 -0.05 -0.015667688 100068.13
0.98428583 -0.05 -0.016436231 100046.89
0.97805478 -0.05 -0.017197796 100053.71
0.97182289 -0.05 -0.017952489 100047.24
0.96559021 -0.05 -0.01870047 100046.19
0.95935671 -0.05 -0.019441721 100042.57
0.95312244 -0.05 -0.020176306 100039.89
0.94688739 -0.05 -0.02090438 100036.6
0.94065159 -0.05 -0.021626027 100033.49
0.93441507 -0.05 -0.022341255 100030.13
0.9281778 -0.05 -0.023050122 100026.82
0.92193983 -0.05 -0.023752706 100023.31
0.91570117 -0.05 -0.02444904 100019.87
0.90946181 -0.05 -0.025139279 100016.27
0.90322179 -0.05 -0.025823418 100012.74
0.89698111 -0.05 -0.02650149 100009.05
0.8907398 -0.05 -0.027173631 100005.41
0.88449783 -0.05 -0.027839854 100001.63
0.87825524 -0.05 -0.028500103 99997.896
0.87201204 -0.05 -0.029154518 99994.036
0.86576823 -0.05 -0.029803164 99990.263
0.85952381 -0.05 -0.030446013 99986.373
0.85327882 -0.05 -0.031083154 99982.527
0.84703326 -0.05 -0.031714647 99978.593
0.84078712 -0.05 -0.032340481 99974.717
0.83454041 -0.05 -0.032960617 99970.769
0.82829317 -0.05 -0.033575234 99966.843
0.82204537 -0.05 -0.03418429 99962.869
0.81579703 -0.05 -0.034787739 99958.966
0.80954816 -0.05 -0.03538566 99954.987
0.80329877 -0.05 -0.035978064 99951.034
0.79704885 -0.05 -0.036564982 99947.033
0.79079841 -0.05 -0.03714637 99943.075
0.78454749 -0.05 -0.037722313 99939.066
0.77829605 -0.05 -0.038292777 99935.091
0.77204411 -0.05 -0.038857731 99931.072
0.76579168 -0.05 -0.039417235 99927.103
0.75953877 -0.05 -0.039971276 99923.091
0.75328537 -0.05 -0.040519842 99919.095
0.74703149 -0.05 -0.041062908 99915.074
0.74077715 -0.05 -0.041600456 99911.077
0.73452231 -0.05 -0.042132473 99907.069
0.72826702 -0.05 -0.042658923 99903.064
0.72201127 -0.05 -0.04317984 99899.017
0.71575505 -0.05 -0.043695253 99895.006
0.70949837 -0.05 -0.044204987 99890.992
0.70324123 -0.05 -0.044709095 99886.948
0.69698364 -0.05 -0.045207541 99882.913
0.69072559 -0.05 -0.045700231 99878.87
0.6844671 -0.05 -0.046187223 99874.815
0.67820815 -0.05 -0.046668419 99870.742
0.67194877 -0.05 -0.047143829 99866.619
0.66568894 -0.05 -0.047613337 99862.531
0.65942867 -0.05 -0.048076842 99858.409
0.65316796 -0.05 -0.048534428 99854.267
0.64690681 -0.05 -0.04898601 99850.123
0.64064522 -0.05 -0.049431421 99845.973
0.63438319 -0.05 -0.04987063 99841.784
0.62812073 -0.05 -0.050303637 99837.561
0.62185784 -0.05 -0.050730307 99833.341
0.61559451 -0.05 -0.051150553 99829.105
0.60933076 -0.05 -0.051564372 99824.841
0.60306657 -0.05 -0.05197162 99820.551
0.59680195 -0.05 -0.052372226 99816.202
0.59053691 -0.05 -0.052766106 99811.848
0.58427144 -0.05 -0.053153168 99807.451
0.57800555 -0.05 -0.053533295 99803.051
0.57173924 -0.05 -0.053906345 99798.618
0.5654725 -0.05 -0.054272284 99794.119
0.55920535 -0.05 -0.054630991 99789.595
0.55293777 -0.05 -0.054982302 99785.037
0.54666978 -0.05 -0.055326149 99780.444
0.54040139 -0.05 -0.055662366 99775.846
0.53413258 -0.05 -0.055990815 99771.186
0.52786336 -0.05 -0.056311425 99766.461
0.52159374 -0.05 -0.056624025 99761.712
0.51532371 -0.05 -0.056928472 99756.87
0.50905329 -0.05 -0.0572246 99752.038
0.50278248 -0.05 -0.057512269 99747.171
0.49651127 -0.05 -0.057791356 99742.355
0.49023969 -0.05 -0.058061664 99737.513
0.48396772 -0.05 -0.058322989 99732.675
0.47769538 -0.05 -0.058575208 99727.757
0.47142266 -0.05 -0.058818182 99722.81
0.4651496 -0.05 -0.05905166 99717.76
0.45887618 -0.05 -0.059275428 99712.708
0.45260242 -0.05 -0.059489325 99707.631
0.44632832 -0.05 -0.059693166 99702.559
0.44005389 -0.05 -0.059886725 99697.423
0.43377915 -0.05 -0.060069764 99692.283
0.42750411 -0.05 -0.060242071 99687.128
0.42122877 -0.05 -0.060403448 99681.983
0.41495315 -0.05 -0.060553645 99676.768
0.40867728 -0.05 -0.060692387 99671.563
0.40240116 -0.05 -0.060819445 99666.289
0.39612481 -0.05 -0.060934539 99661.102
0.38984824 -0.05 -0.061037356 99655.914
0.38357149 -0.05 -0.061127683 99650.713
0.37729455 -0.05 -0.06120528 99645.436
0.37101747 -0.05 -0.061269748 99640.282
0.36474028 -0.05 -0.061320769 99635.098
0.35846298 -0.05 -0.061358099 99629.954
0.35218562 -0.05 -0.061381403 99624.764
0.34590821 -0.05 -0.061390326 99619.624
0.33963081 -0.05 -0.06138448 99614.556
0.33335344 -0.05 -0.061363536 99609.508
0.32707613 -0.05 -0.061327105 99604.48
0.32079895 -0.05 -0.061274762 99599.519
0.31452192 -0.05 -0.061206119 99594.724
0.30824509 -0.05 -0.061120761 99589.872
0.30196852 -0.05 -0.061018256 99584.294
0.29831241 -0.05 0.059080789 99370.117
0.29267599 -0.05 0.059176368 99363.561
0.28712047 -0.05 0.059256002 99356.977
0.28164473 -0.05 0.059319927 99350.546
0.27624767 -0.05 0.059368429 99344.197
0.27092819 -0.05 0.059401828 99337.944
0.2656852 -0.05 0.05942042 99331.801
0.26051766 -0.05 0.059424471 99325.802
0.25542451 -0.05 0.059414289 99319.797
0.25040473 -0.05 0.059390142 99313.951
0.24545729 -0.05 0.059352233 99308.212
0.2405812 -0.05 0.059300861 99302.581
0.23577547 -0.05 0.059236287 99297.043
0.23103912 -0.05 0.059158796 99291.565
0.22637119 -0.05 0.059068649 99286.202
0.22177075 -0.05 0.058966036 99280.979
0.21723685 -0.05 0.058851242 99275.759
0.21276858 -0.05 0.058724506 99270.691
0.20836504 -0.05 0.05858598 99265.756
0.20402534 -0.05 0.058435947 99260.901
0.19974858 -0.05 0.058274637 99256.196
0.19553392 -0.05 0.0581023 99251.477
0.19138049 -0.05 0.057919156 99246.881
0.18728746 -0.05 0.057725308 99242.455
0.183254 -0.05 0.057521024 99238.045
0.17927928 -0.05 0.05730651 99233.83
0.17536253 -0.05 0.057081946 99229.66
0.17150291 -0.05 0.056847554 99225.615
0.16769966 -0.05 0.056603511 99221.622
0.16395203 -0.05 0.05634997 99217.808
0.16025924 -0.05 0.056087079 99214.087
0.15662054 -0.05 0.055815075 99210.41
0.15303522 -0.05 0.055534088 99206.898
0.14950254 -0.05 0.055244275 99203.405
0.14602179 -0.05 0.054945798 99200.07
0.14259226 -0.05 0.054638766 99196.852
0.13921327 -0.05 0.05432335 99193.779
0.13588416 -0.05 0.05399968 99190.836
0.13260422 -0.05 0.053667939 99187.903
0.1293728 -0.05 0.053328249 99185.153
0.12618928 -0.05 0.052980648 99182.574
0.123053 -0.05 0.052625333 99179.96
0.11996333 -0.05 0.052262438 99177.482
0.11691965 -0.05 0.051891988 99175.157
0.11392139 -0.05 0.05151407 99172.988
0.11096791 -0.05 0.051128826 99170.896
0.10805866 -0.05 0.0507363 99169.109
0.10519305 -0.05 0.050336595 99167.337
0.10237049 -0.05 0.049929878 99165.664
0.099590449 -0.05 0.049516101 99164.236
0.096852392 -0.05 0.049095327 99162.814
0.094155763 -0.05 0.048667708 99161.475
0.091500059 -0.05 0.048233169 99160.48
0.088884761 -0.05 0.047791785 99159.553
0.086309359 -0.05 0.047343628 99158.967
0.08377336 -0.05 0.046888734 99158.393
0.081276277 -0.05 0.046427153 99158.03
0.078817661 -0.05 0.045958788 99157.873
0.076397053 -0.05 0.045483635 99157.926
0.074013988 -0.05 0.045001776 99158.071
0.071668021 -0.05 0.044513235 99158.497
0.069358748 -0.05 0.044017907 99159.319
0.067085753 -0.05 0.043515756 99160.371
0.064848629 -0.05 0.043006784 99161.525
0.062646994 -0.05 0.042490905 99162.875
0.060480481 -0.05 0.041968039 99164.554
0.058348724 -0.05 0.041438129 99166.726
0.05625138 -0.05 0.040901077 99169.375
0.054188101 -0.05 0.040356855 99172.308
0.052158591 -0.05 0.039805276 99175.721
0.050162559 -0.05 0.039246193 99179.196
0.048199699 -0.05 0.038679545 99183.085
0.046269757 -0.05 0.038105151 99187.546
0.044372494 -0.05 0.03752283 99192.823
0.042507713 -0.05 0.036932305 99198.952
0.040675212 -0.05 0.036333387 99205.49
0.038874791 -0.05 0.035725928 99212.437
0.037106314 -0.05 0.035109643 99220.16
0.035369676 -0.05 0.034484227 99229.123
0.033664795 -0.05 0.033849366 99239.41
0.031991617 -0.05 0.033204747 99250.586
0.030350131 -0.05 0.032550014 99262.253
0.028740386 -0.05 0.031884735 99274.732
0.027162447 -0.05 0.03120853 99289.408
0.025616456 -0.05 0.030520909 99306.282
0.024102618 -0.05 0.029821354 99325.022
0.022621185 -0.05 0.029109352 99345.138
0.021172532 -0.05 0.028384269 99367.25
0.019757058 -0.05 0.027645527 99392.572
0.018375327 -0.05 0.026892396 99421.262
0.01702799 -0.05 0.026124106 99452.266
0.01571579 -0.05 0.025339905 99485.683
0.014439657 -0.05 0.024538929 99521.889
0.013200704 -0.05 0.023720305 99562.752
0.012000238 -0.05 0.022883118 99610.712
0.010839795 -0.05 0.022026347 99666.467
0.009721104 -0.05 0.021148912 99730.616
0.0086462152 -0.05 0.020249919 99805.459
0.0076176034 -0.05 0.019328491 99890.32
0.0066379808 -0.05 0.01838349 99982.9
0.005710392 -0.05 0.017414134 100082.41
0.0048385658 -0.05 0.016420191 100192.78
0.0040263652 -0.05 0.015401214 100312.93
0.00327788 -0.05 0.014357303 100444.5
0.0025978728 -0.05 0.01328969 100585.58
0.0019909447 -0.05 0.01219976 100733.6
0.0014614826 -0.05 0.011089932 100884.18
0.0010134881 -0.05 0.0099641679 101032.35
0.00065012401 -0.05 0.0088268079 101173.25
0.00037324273 -0.05 0.0076831234 101300.57
0.00018304222 -0.05 0.0065391698 101406.79
7.8140853e-05 -0.05 0.0054010395 101489.58
0.99676272 -0.05 -0.013992954 100232.47
0.99056805 -0.05 -0.01297712 100173.22
0.98437223 -0.05 -0.011968253 100142.98
0.9781753 -0.05 -0.010966326 100120.53
0.97197726 -0.05 -0.0099712322 100102.64
0.96577815 -0.05 -0.0089828152 100086.58
0.95957798 -0.05 -0.0080010921 100072.61
0.95337677 -0.05 -0.0070259996 100059.59
0.94717454 -0.05 -0.0060573832 100047.65
0.94097131 -0.05 -0.0050951591 100036.31
0.93476709 -0.05 -0.0041393223 100025.87
0.92856191 -0.05 -0.0031898131 100015.77
0.92235577 -0.05 -0.0022465551 100006.31
0.91614869 -0.05 -0.0013095137 99997.18
0.90994069 -0.05 -0.00037853828 99988.443
0.90373179 -0.05 0.00054636854 99980.071
0.89752201 -0.05 0.001465238 99972.021
0.89131134 -0.05 0.0023782056 99964.088
0.8850998 -0.05 0.003285285 99956.469
0.87888741 -0.05 0.0041864195 99949.175
0.87267418 -0.05 0.005081746 99941.914
0.86646012 -0.05 0.0059713325 99934.873
0.86024524 -0.05 0.0068551503 99928.059
0.85402955 -0.05 0.0077332856 99921.326
0.84781307 -0.05 0.0086058007 99914.666
0.84159581 -0.05 0.0094726819 99908.168
0.83537775 -0.05 0.010333893 99901.913
0.82915893 -0.05 0.011189608 99895.451
0.82293937 -0.05 0.012039789 99889.317
0.81671903 -0.05 0.012884387 99883.139
0.81049795 -0.05 0.013723483 99877.224
0.80427613 -0.05 0.014557085 99871.257
0.79805359 -0.05 0.015385226 99865.404
0.79183031 -0.05 0.016207861 99859.631
0.78560633 -0.05 0.017025075 99853.809
0.77938163 -0.05 0.017836833 99848.124
0.77315621 -0.05 0.018643104 99842.435
0.76693009 -0.05 0.019443948 99836.773
0.76070327 -0.05 0.020239352 99831.166
0.75447575 -0.05 0.021029305 99825.561
0.74824756 -0.05 0.02181378 99819.996
0.74201867 -0.05 0.022592759 99814.434
0.73578909 -0.05 0.023366229 99808.935
0.72955883 -0.05 0.024134155 99803.499
0.72332789 -0.05 0.02489657 99797.992
0.71709628 -0.05 0.025653503 99792.425
0.71086399 -0.05 0.02640478 99787.135
0.70463103 -0.05 0.027150452 99781.563
0.69839739 -0.05 0.027890483 99776.196
0.69216307 -0.05 0.028624781 99770.701
0.68592808 -0.05 0.029353403 99765.26
0.67969243 -0.05 0.03007625 99759.8
0.67345611 -0.05 0.030793332 99754.233
0.66721911 -0.05 0.031504534 99748.761
0.66098145 -0.05 0.032209754 99743.331
0.65474311 -0.05 0.032909078 99737.791
0.6485041 -0.05 0.033602418 99732.3
0.64226442 -0.05 0.03428961 99726.826
0.63602406 -0.05 0.03497062 99721.343
0.62978303 -0.05 0.03564545 99715.743
0.62354131 -0.05 0.036313964 99710.199
0.61729892 -0.05 0.036976075 99704.584
0.61105584 -0.05 0.037631783 99698.954
0.60481209 -0.05 0.03828094 99693.303
0.59856765 -0.05 0.038923476 99687.607
0.59232253 -0.05 0.039559307 99682.002
0.58607671 -0.05 0.040188343 99676.326
0.5798302 -0.05 0.040810466 99670.664
0.57358299 -0.05 0.041425533 99664.964
0.5673351 -0.05 0.04203351 99659.132
0.56108651 -0.05 0.042634277 99653.28
0.5548372 -0.05 0.043227671 99647.391
0.54858719 -0.05 0.043813619 99641.421
0.54233648 -0.05 0.044391962 99635.475
0.53608506 -0.05 0.044962558 99629.48
0.52983293 -0.05 0.045525337 99623.505
0.52358009 -0.05 0.046080127 99617.523
0.51732652 -0.05 0.046626786 99611.447
0.51107223 -0.05 0.047165147 99605.401
0.50481723 -0.05 0.047695071 99599.218
0.49856151 -0.05 0.048216434 99592.959
0.49230506 -0.05 0.048729039 99586.633
0.48604789 -0.05 0.049232684 99580.323
0.47978999 -0.05 0.049727243 99573.907
0.47353137 -0.05 0.050212578 99567.436
0.46727203 -0.05 0.050688438 99560.931
0.46101195 -0.05 0.051154609 99554.377
0.45475114 -0.05 0.05161093 99547.709
0.44848962 -0.05 0.052057216 99541.047
0.44222736 -0.05 0.052493241 99534.348
0.4359644 -0.05 0.052918763 99527.594
0.42970071 -0.05 0.053333575 99520.765
0.42343631 -0.05 0.053737476 99513.854
0.4171712 -0.05 0.054130216 99506.89
0.41090537 -0.05 0.054511519 99499.911
0.40463886 -0.05 0.054881158 99492.836
0.39837165 -0.05 0.055238849 99485.787
0.39210375 -0.05 0.055584282 99478.731
0.38583519 -0.05 0.055917241 99471.612
0.37956595 -0.05 0.056237487 99464.415
0.37329606 -0.05 0.056544619 99457.298
0.36702552 -0.05 0.056838317 99450.123
0.36075437 -0.05 0.05711834 99442.935
0.35448259 -0.05 0.05738435 99435.699
0.34821023 -0.05 0.057635991 99428.461
0.3419373 -0.05 0.057872873 99421.22
0.33566381 -0.05 0.058094669 99413.91
0.3293898 -0.05 0.058300986 99406.624
0.32311527 -0.05 0.058491398 99399.36
0.31684028 -0.05 0.058665516 99392.001
0.31056485 -0.05 0.058822925 99384.329
0.30428901 -0.05 0.058963189 99377.054
