# wallShearStress  FACE_DATA 448
# x y z  wallShearStress_x wallShearStress_y wallShearStress_z
0.29599185 -0.05 -0.060904675 -6.8145301 2.3383104e-17 0.15399043
0.29035594 -0.05 -0.060782241 -7.0230247 -8.073268e-17 0.17751063
0.28480149 -0.05 -0.060647004 -7.2765965 -1.1968974e-16 0.2033258
0.27932737 -0.05 -0.060499153 -7.5253609 -6.3556308e-18 0.23030965
0.27393248 -0.05 -0.060338935 -7.7739357 1.3376192e-16 0.25880865
0.26861568 -0.05 -0.060166624 -8.023686 1.3775979e-16 0.2890729
0.26337589 -0.05 -0.059982474 -8.2755314 -2.3416601e-16 0.32092124
0.25821206 -0.05 -0.059786711 -8.5281241 1.5929688e-16 0.35448437
0.25312312 -0.05 -0.059579604 -8.7797279 -2.1232488e-16 0.38952073
0.24810802 -0.05 -0.059361378 -9.0312356 -1.0495009e-16 0.4264731
0.24316574 -0.05 -0.059132198 -9.2825208 -3.6272613e-16 0.46501171
0.23829529 -0.05 -0.058892323 -9.5331195 3.243018e-16 0.50524546
0.23349565 -0.05 -0.058641978 -9.7815857 1.3789924e-16 0.54698528
0.22876584 -0.05 -0.058381406 -10.026409 -8.4820276e-17 0.59027572
0.22410489 -0.05 -0.058110835 -10.269334 -6.9905138e-17 0.63530664
0.21951186 -0.05 -0.057830417 -10.508722 -4.907147e-16 0.68192779
0.21498578 -0.05 -0.057540398 -10.74367 -4.0025673e-16 0.72987938
0.21052576 -0.05 -0.057240985 -10.972706 -2.3575698e-16 0.77948864
0.20613087 -0.05 -0.056932294 -11.192844 3.156022e-16 0.8302019
0.20180021 -0.05 -0.056614572 -11.404768 1.7453186e-16 0.88211183
0.1975329 -0.05 -0.056288017 -11.61085 -1.5530416e-16 0.93552692
0.19332805 -0.05 -0.055952843 -11.815301 4.2746739e-17 0.99046527
0.18918481 -0.05 -0.055609238 -12.023935 -5.627738e-16 1.0474014
0.18510233 -0.05 -0.055257271 -12.230847 2.9306312e-16 1.1054908
0.18107978 -0.05 -0.05489718 -12.431773 1.4820992e-16 1.1642548
0.17711634 -0.05 -0.05452914 -12.618596 -6.4318552e-16 1.2240428
0.17321118 -0.05 -0.054153295 -12.785346 6.9757401e-17 1.2846646
0.16936352 -0.05 -0.053769841 -12.932772 -1.5010394e-16 1.3469715
0.16557255 -0.05 -0.053378923 -13.06809 -1.107007e-16 1.4119347
0.16183752 -0.05 -0.052980665 -13.214206 4.4376454e-16 1.4814873
0.15815766 -0.05 -0.052575183 -13.378966 -1.4025294e-16 1.5554783
0.1545322 -0.05 -0.052162688 -13.564565 1.1821086e-16 1.6338642
0.15096043 -0.05 -0.051743279 -13.762897 2.3445717e-16 1.7160993
0.1474416 -0.05 -0.051317086 -13.975291 -1.7712006e-16 1.8022193
0.14397498 -0.05 -0.050884244 -14.206446 -3.9344253e-17 1.8930002
0.1405599 -0.05 -0.050444835 -14.460696 3.3244941e-16 1.9887617
0.13719564 -0.05 -0.049999002 -14.737932 1.7122321e-17 2.0900689
0.13388153 -0.05 -0.049546849 -15.031088 -4.1049641e-16 2.1966317
0.13061686 -0.05 -0.049088532 -15.331982 6.6254892e-16 2.3075738
0.127401 -0.05 -0.048624149 -15.634339 -5.1451483e-16 2.4227874
0.1242333 -0.05 -0.048153712 -15.932625 -1.1727989e-16 2.5410085
0.1211131 -0.05 -0.047677395 -16.225427 -4.7478291e-17 2.6620922
0.11803977 -0.05 -0.047195304 -16.511502 1.0773109e-16 2.7865625
0.1150127 -0.05 -0.046707444 -16.788502 1.2413679e-16 2.9138354
0.11203128 -0.05 -0.046213876 -17.055255 -6.1735426e-16 3.0434374
0.10909492 -0.05 -0.045714719 -17.311177 -9.0243756e-16 3.1754817
0.10620302 -0.05 -0.045209997 -17.55514 -8.6833602e-18 3.3098408
0.103355 -0.05 -0.044699788 -17.787183 5.8679123e-16 3.4457444
0.10055028 -0.05 -0.044184238 -18.008059 1.54309e-16 3.5848535
0.097788322 -0.05 -0.043663276 -18.21552 -3.2609776e-16 3.7268267
0.095068581 -0.05 -0.043136945 -18.410506 3.5860423e-16 3.8703926
0.092390503 -0.05 -0.042605377 -18.594951 -2.9429222e-16 4.0167816
0.089753587 -0.05 -0.042068477 -18.766532 6.9826324e-17 4.1652075
0.087157311 -0.05 -0.041526298 -18.925899 -2.8405288e-16 4.3151631
0.084601163 -0.05 -0.040978895 -19.073144 -2.6699387e-16 4.4673215
0.08208465 -0.05 -0.040426284 -19.208662 -3.9462566e-16 4.6214272
0.079607283 -0.05 -0.039868495 -19.33227 -2.2244475e-16 4.7783123
0.077168614 -0.05 -0.039305412 -19.442109 -6.1372111e-16 4.9369085
0.074768189 -0.05 -0.038737019 -19.538227 -3.5715999e-17 5.0967033
0.072405538 -0.05 -0.038163375 -19.622003 1.8586449e-17 5.258293
0.070080216 -0.05 -0.03758449 -19.693254 -2.5870506e-16 5.4222862
0.067791822 -0.05 -0.037000241 -19.750595 1.1408775e-16 5.5878175
0.065539943 -0.05 -0.036410577 -19.794926 -3.268933e-16 5.7545719
0.063324172 -0.05 -0.035815484 -19.827299 -8.3164879e-16 5.923297
0.061144131 -0.05 -0.035214862 -19.846624 3.3434822e-16 6.0936187
0.058999455 -0.05 -0.034608616 -19.850605 3.1015247e-16 6.2654349
0.056889782 -0.05 -0.033996675 -19.838323 2.7212228e-16 6.4384083
0.054814773 -0.05 -0.033378928 -19.809585 1.0467972e-15 6.6121876
0.05277408 -0.05 -0.032755333 -19.764927 -3.6621777e-16 6.7874769
0.050767415 -0.05 -0.032125693 -19.701443 3.0984233e-17 6.9631907
0.048794493 -0.05 -0.031489849 -19.619925 -1.800839e-16 7.1388259
0.046855012 -0.05 -0.030847728 -19.520231 -8.3799401e-16 7.3150186
0.044948722 -0.05 -0.030199139 -19.401922 -8.2296317e-16 7.4915618
0.043075394 -0.05 -0.029543893 -19.26369 3.2007331e-17 7.6681446
0.041234841 -0.05 -0.028881706 -19.103718 2.8242342e-16 7.8432398
0.039426868 -0.05 -0.028212379 -18.922502 1.7577113e-16 8.0165933
0.037651283 -0.05 -0.027535758 -18.720309 -5.5194432e-16 8.1889886
0.035907958 -0.05 -0.026851553 -18.495614 4.0338929e-16 8.3599814
0.0341968 -0.05 -0.026159456 -18.246779 1.7342567e-16 8.5280327
0.032517743 -0.05 -0.025459149 -17.972487 1.2868138e-16 8.6924147
0.030870742 -0.05 -0.024750315 -17.674125 3.1696359e-16 8.8533181
0.029255798 -0.05 -0.024032601 -17.34874 -9.764424e-18 9.0084847
0.027672981 -0.05 -0.023305577 -16.996002 6.2382662e-16 9.1575445
0.026122369 -0.05 -0.022568864 -16.615613 1.9041434e-16 9.2991439
0.024604122 -0.05 -0.02182198 -16.205191 1.4130415e-16 9.4314596
0.023118465 -0.05 -0.021064413 -15.764748 2.2509459e-16 9.5530937
0.021665671 -0.05 -0.020295662 -15.292831 3.7170531e-16 9.6618991
0.020246137 -0.05 -0.019515106 -14.788265 2.0767115e-16 9.7550804
0.018860286 -0.05 -0.018722187 -14.251148 -9.0241271e-17 9.8312118
0.01750871 -0.05 -0.017916192 -13.678712 1.6283136e-16 9.8849544
0.016192088 -0.05 -0.017096381 -13.07147 -1.8362394e-16 9.91423
0.01491119 -0.05 -0.016262026 -12.429688 -3.3072446e-16 9.9154743
0.013666983 -0.05 -0.015412307 -11.752966 5.3299157e-16 9.8843613
0.01246061 -0.05 -0.01454639 -11.039745 3.8801517e-16 9.8127677
0.011293413 -0.05 -0.01366341 -10.290615 -4.6406962e-16 9.6958826
0.010166965 -0.05 -0.01276241 -9.5089456 2.2372005e-16 9.5301552
0.0090830382 -0.05 -0.011842374 -8.7002029 7.9802916e-16 9.3076955
0.0080437141 -0.05 -0.010902493 -7.86578 -2.0040513e-16 9.0228619
0.0070514997 -0.05 -0.0099419805 -7.0105381 2.6458781e-16 8.6657855
0.0061091496 -0.05 -0.0089598079 -6.1425069 -1.0216561e-16 8.2218681
0.005219736 -0.05 -0.0079553106 -5.274263 8.402872e-17 7.6822224
0.0043869939 -0.05 -0.0069284005 -4.4203582 5.8647644e-16 7.0454238
0.0036148009 -0.05 -0.00587878 -3.596564 4.271324e-17 6.3130506
0.0029072396 -0.05 -0.0048067085 -2.804431 1.4801203e-17 5.4863646
0.0022690218 -0.05 -0.0037136 -2.0714781 -7.9885133e-17 4.5824598
0.0017046913 -0.05 -0.0026010186 -1.4370619 -2.4028739e-16 3.6152033
0.0012185381 -0.05 -0.0014715483 -0.91687884 7.6282634e-18 2.60897
0.00081440795 -0.05 -0.00032930328 -0.53271883 1.7454633e-16 1.5970348
0.00049529318 -0.05 0.00082125618 -0.30687784 -2.8498122e-18 0.82934933
0.00026284111 -0.05 0.0019747913 -0.18588679 -7.3097118e-17 0.19424677
0.00011701541 -0.05 0.0031252439 -0.12828869 -9.0411172e-18 -0.38394069
5.6199898e-05 -0.05 0.0042665793 -0.13443526 -9.1901949e-18 -1.0513335
0.99674533 -0.05 -0.014892139 0.19788446 4.0410156e-16 -0.11044302
0.99051602 -0.05 -0.015667688 -0.01108101 -1.1670844e-16 0.00050035895
0.98428583 -0.05 -0.016436231 0.013561461 6.2405984e-16 0.00087095905
0.97805478 -0.05 -0.017197796 -0.00039878927 -3.8840975e-16 -0.00015977421
0.97182289 -0.05 -0.017952489 0.007675805 2.458847e-16 0.0005354707
0.96559021 -0.05 -0.01870047 0.0049309658 -2.3319821e-16 0.00034320859
0.95935671 -0.05 -0.019441721 0.0067866544 -1.4506419e-16 0.00054230788
0.95312244 -0.05 -0.020176306 0.006442104 7.4055204e-16 0.00048692264
0.94688739 -0.05 -0.02090438 0.0070477057 -7.5643308e-16 0.00053659518
0.94065159 -0.05 -0.021626027 0.0071520667 -3.7205894e-16 0.00052412932
0.93441507 -0.05 -0.022341255 0.0075011938 2.7480338e-17 0.00054748764
0.9281778 -0.05 -0.023050122 0.0077128491 5.5658175e-17 0.00054884196
0.92193983 -0.05 -0.023752706 0.008069332 9.3431314e-16 0.00057243973
0.91570117 -0.05 -0.02444904 0.0085471564 -8.098201e-17 0.00056852428
0.90946181 -0.05 -0.025139279 0.0093385858 2.4147555e-18 0.00053503029
0.90322179 -0.05 -0.025823418 0.011660527 -8.4140396e-16 0.00053663181
0.89698111 -0.05 -0.02650149 0.015494834 -4.8565764e-16 0.00074499819
0.8907398 -0.05 -0.027173631 0.013997503 -3.3963483e-16 0.00090671104
0.88449783 -0.05 -0.027839854 0.015309596 3.6946918e-16 0.0011880724
0.87825524 -0.05 -0.028500103 0.013496467 -6.0595628e-17 0.00095760885
0.87201204 -0.05 -0.029154518 0.014566605 1.1527545e-16 0.0010837265
0.86576823 -0.05 -0.029803164 0.012539061 6.9955166e-18 0.00089059941
0.85952381 -0.05 -0.030446013 0.013165296 -1.963842e-16 0.00089595331
0.85327882 -0.05 -0.031083154 0.012495028 -5.9548203e-17 0.0008559253
0.84703326 -0.05 -0.031714647 0.011620488 5.4275336e-16 0.00075529945
0.84078712 -0.05 -0.032340481 0.010200602 -9.6902049e-17 0.00060451476
0.83454041 -0.05 -0.032960617 0.0083858245 -7.2022372e-16 0.00039472096
0.82829317 -0.05 -0.033575234 0.0061699843 -1.6495922e-16 0.00016878471
0.82204537 -0.05 -0.03418429 0.0034789685 -4.8967389e-17 -8.6365638e-05
0.81579703 -0.05 -0.034787739 0.00042139361 3.0632134e-18 -0.0003498349
0.80954816 -0.05 -0.03538566 -0.0027134396 2.1865117e-16 -0.00058003838
0.80329877 -0.05 -0.035978064 -0.0051390224 -7.2932075e-17 -0.00082217695
0.79704885 -0.05 -0.036564982 -0.0078928799 4.325013e-16 -0.0010730761
0.79079841 -0.05 -0.03714637 -0.010934797 -2.4439517e-16 -0.0013458702
0.78454749 -0.05 -0.037722313 -0.014302564 3.1142274e-16 -0.0016423533
0.77829605 -0.05 -0.038292777 -0.01800953 -1.7643809e-16 -0.0019665284
0.77204411 -0.05 -0.038857731 -0.022112673 -3.8794233e-17 -0.0023115291
0.76579168 -0.05 -0.039417235 -0.026579462 2.1469994e-16 -0.0026803834
0.75953877 -0.05 -0.039971276 -0.031440122 1.1307533e-17 -0.0030764241
0.75328537 -0.05 -0.040519842 -0.03679757 1.2300138e-16 -0.0035045946
0.74703149 -0.05 -0.041062908 -0.042739008 1.2890783e-17 -0.003965078
0.74077715 -0.05 -0.041600456 -0.049284432 1.9069212e-16 -0.0044619852
0.73452231 -0.05 -0.042132473 -0.056475556 4.8240948e-18 -0.0049995679
0.72826702 -0.05 -0.042658923 -0.064310779 2.3575032e-16 -0.0055803018
0.72201127 -0.05 -0.04317984 -0.072913925 -9.7970968e-17 -0.0061978836
0.71575505 -0.05 -0.043695253 -0.082243379 9.0445435e-17 -0.0068506268
0.70949837 -0.05 -0.044204987 -0.092242264 -1.9490495e-17 -0.0075547159
0.70324123 -0.05 -0.044709095 -0.10301795 -4.3613528e-16 -0.0082910409
0.69698364 -0.05 -0.045207541 -0.11465077 1.9415845e-16 -0.0090795527
0.69072559 -0.05 -0.045700231 -0.12697439 -6.4450589e-17 -0.0098898787
0.6844671 -0.05 -0.046187223 -0.14017973 -1.6650718e-16 -0.010751711
0.67820815 -0.05 -0.046668419 -0.1542015 4.4050759e-17 -0.011645833
0.67194877 -0.05 -0.047143829 -0.16924953 -9.3861116e-17 -0.012578483
0.66568894 -0.05 -0.047613337 -0.18525207 5.8082748e-17 -0.013546511
0.65942867 -0.05 -0.048076842 -0.20213387 -6.2222821e-17 -0.014555114
0.65316796 -0.05 -0.048534428 -0.2201298 7.9456602e-17 -0.015615522
0.64690681 -0.05 -0.04898601 -0.23975494 -1.0513821e-17 -0.016760995
0.64064522 -0.05 -0.049431421 -0.26164395 -2.1239239e-17 -0.017958429
0.63438319 -0.05 -0.04987063 -0.28481928 -1.1586949e-16 -0.019234793
0.62812073 -0.05 -0.050303637 -0.30946368 1.7807944e-16 -0.020556619
0.62185784 -0.05 -0.050730307 -0.33550916 -4.3944198e-17 -0.021916508
0.61559451 -0.05 -0.051150553 -0.36287079 -1.9247367e-16 -0.023306047
0.60933076 -0.05 -0.051564372 -0.39178261 -6.4848371e-17 -0.024737684
0.60306657 -0.05 -0.05197162 -0.42223906 3.95618e-17 -0.026198453
0.59680195 -0.05 -0.052372226 -0.45439849 3.1265226e-17 -0.027687428
0.59053691 -0.05 -0.052766106 -0.48840543 5.2934955e-17 -0.029214719
0.58427144 -0.05 -0.053153168 -0.52418913 3.4698919e-17 -0.030767565
0.57800555 -0.05 -0.053533295 -0.56189659 -1.0708729e-16 -0.032344108
0.57173924 -0.05 -0.053906345 -0.60142347 -3.8170469e-17 -0.033933446
0.5654725 -0.05 -0.054272284 -0.64315269 -3.0317285e-16 -0.035544697
0.55920535 -0.05 -0.054630991 -0.68716319 2.3635309e-16 -0.037163409
0.55293777 -0.05 -0.054982302 -0.73346817 -1.6068742e-16 -0.038796461
0.54666978 -0.05 -0.055326149 -0.78222792 2.2719923e-16 -0.040437237
0.54040139 -0.05 -0.055662366 -0.83370146 -1.0805286e-16 -0.042082586
0.53413258 -0.05 -0.055990815 -0.88765942 -7.1853838e-17 -0.043707481
0.52786336 -0.05 -0.056311425 -0.94460206 1.4724008e-16 -0.045315544
0.52159374 -0.05 -0.056624025 -1.00446 -1.0348044e-16 -0.046900472
0.51532371 -0.05 -0.056928472 -1.067421 -2.3436313e-16 -0.048460727
0.50905329 -0.05 -0.0572246 -1.1337002 1.2681062e-16 -0.049977389
0.50278248 -0.05 -0.057512269 -1.205633 1.3497232e-17 -0.051685283
0.49651127 -0.05 -0.057791356 -1.2885947 2.1206603e-16 -0.05376581
0.49023969 -0.05 -0.058061664 -1.3817605 -2.6635254e-17 -0.055810334
0.48396772 -0.05 -0.058322989 -1.4780751 -5.0436356e-17 -0.057473506
0.47769538 -0.05 -0.058575208 -1.5770492 1.3395889e-17 -0.058968267
0.47142266 -0.05 -0.058818182 -1.6796642 9.4411511e-17 -0.060279025
0.4651496 -0.05 -0.05905166 -1.786644 6.6113871e-17 -0.061014284
0.45887618 -0.05 -0.059275428 -1.897923 1.3772899e-16 -0.061226112
0.45260242 -0.05 -0.059489325 -2.0134922 -1.1781509e-17 -0.061530362
0.44632832 -0.05 -0.059693166 -2.1338735 -1.3061926e-16 -0.061837316
0.44005389 -0.05 -0.059886725 -2.2594825 -9.6080377e-18 -0.061809791
0.43377915 -0.05 -0.060069764 -2.39036 1.8824085e-16 -0.061400831
0.42750411 -0.05 -0.060242071 -2.5266338 -1.6162713e-16 -0.060619843
0.42122877 -0.05 -0.060403448 -2.6682548 1.1860576e-16 -0.059403051
0.41495315 -0.05 -0.060553645 -2.8155766 1.0878913e-17 -0.057702816
0.40867728 -0.05 -0.060692387 -2.9684641 4.5051104e-17 -0.055417583
0.40240116 -0.05 -0.060819445 -3.1274413 1.1028027e-16 -0.052564745
0.39612481 -0.05 -0.060934539 -3.2922677 1.9132576e-17 -0.04903489
0.38984824 -0.05 -0.061037356 -3.4626453 6.3131658e-17 -0.044827989
0.38357149 -0.05 -0.061127683 -3.6389954 4.834278e-17 -0.039853272
0.37729455 -0.05 -0.06120528 -3.8220429 -3.867151e-17 -0.034035187
0.37101747 -0.05 -0.061269748 -4.0113824 -2.3140395e-18 -0.02735206
0.36474028 -0.05 -0.061320769 -4.2065674 -4.470826e-17 -0.020110447
0.35846298 -0.05 -0.061358099 -4.4079131 -1.1753983e-18 -0.010887152
0.35218562 -0.05 -0.061381403 -4.6160792 2.0617879e-18 -0.0010087854
0.34590821 -0.05 -0.061390326 -4.8310177 5.6918517e-19 0.010290465
0.33963081 -0.05 -0.06138448 -5.0524143 -1.4067951e-18 0.023175539
0.33335344 -0.05 -0.061363536 -5.2801787 -7.4301774e-18 0.036811249
0.32707613 -0.05 -0.061327105 -5.5142798 -1.2699552e-17 0.051983601
0.32079895 -0.05 -0.061274762 -5.7539965 -6.5475305e-17 0.069008887
0.31452192 -0.05 -0.061206119 -6.0001457 -4.4048564e-19 0.08776602
0.30824509 -0.05 -0.061120761 -6.2531032 3.1425893e-17 0.10856445
0.30196852 -0.05 -0.061018256 -6.543509 8.406034e-17 0.13163355
0.29831241 -0.05 0.059080789 -7.13497 -1.2344906e-16 0.13154205
0.29267599 -0.05 0.059176368 -7.0266596 -1.4950447e-16 0.11089884
0.28712047 -0.05 0.059256002 -6.9004765 8.9079005e-18 0.091068875
0.28164473 -0.05 0.059319927 -6.78131 -3.1289945e-17 0.072170172
0.27624767 -0.05 0.059368429 -6.6680944 -1.9566646e-17 0.053635462
0.27092819 -0.05 0.059401828 -6.5612374 -3.6798364e-17 0.033537646
0.2656852 -0.05 0.05942042 -6.4608242 3.5925723e-18 0.015190038
0.26051766 -0.05 0.059424471 -6.3663197 -5.3719403e-18 -0.0030257
0.25542451 -0.05 0.059414289 -6.2776304 -3.6676853e-18 -0.021224272
0.25040473 -0.05 0.059390142 -6.1945177 4.6181164e-18 -0.038441475
0.24545729 -0.05 0.059352233 -6.1155907 1.2638116e-17 -0.054531214
0.2405812 -0.05 0.059300861 -6.0404789 2.9488762e-17 -0.070606534
0.23577547 -0.05 0.059236287 -5.9680908 -1.0141964e-17 -0.086871233
0.23103912 -0.05 0.059158796 -5.8982751 6.3466814e-17 -0.10313673
0.22637119 -0.05 0.059068649 -5.8318934 -8.2628312e-17 -0.11932304
0.22177075 -0.05 0.058966036 -5.7686537 -1.1967721e-16 -0.13538043
0.21723685 -0.05 0.058851242 -5.7088624 -8.5953401e-17 -0.15126376
0.21276858 -0.05 0.058724506 -5.6527198 7.203339e-17 -0.1672089
0.20836504 -0.05 0.05858598 -5.5993023 -1.7595162e-16 -0.1830277
0.20402534 -0.05 0.058435947 -5.5488877 1.6384055e-17 -0.19876253
0.19974858 -0.05 0.058274637 -5.5014815 -2.1344844e-17 -0.21449271
0.19553392 -0.05 0.0581023 -5.4571991 1.3931051e-17 -0.23020929
0.19138049 -0.05 0.057919156 -5.4163693 -9.1909558e-17 -0.24613586
0.18728746 -0.05 0.057725308 -5.3779343 -5.8415297e-17 -0.26208484
0.183254 -0.05 0.057521024 -5.3420455 2.8638099e-17 -0.27802825
0.17927928 -0.05 0.05730651 -5.3089475 -1.3718128e-17 -0.29418672
0.17536253 -0.05 0.057081946 -5.2779175 2.1154237e-16 -0.31034926
0.17150291 -0.05 0.056847554 -5.2496595 8.8477477e-18 -0.3267595
0.16769966 -0.05 0.056603511 -5.2238156 -1.3047649e-16 -0.34335626
0.16395203 -0.05 0.05634997 -5.2004358 1.8820969e-16 -0.36024245
0.16025924 -0.05 0.056087079 -5.1789958 -2.1841462e-16 -0.3772325
0.15662054 -0.05 0.055815075 -5.160166 7.267526e-18 -0.39454213
0.15303522 -0.05 0.055534088 -5.1438236 -4.9189351e-16 -0.41222602
0.14950254 -0.05 0.055244275 -5.129799 3.243966e-16 -0.43017347
0.14602179 -0.05 0.054945798 -5.1183277 -2.5409803e-16 -0.4486025
0.14259226 -0.05 0.054638766 -5.1086323 -2.1232842e-16 -0.46733633
0.13921327 -0.05 0.05432335 -5.1007431 -4.4349771e-16 -0.48642254
0.13588416 -0.05 0.05399968 -5.0945483 -1.8420499e-16 -0.50584939
0.13260422 -0.05 0.053667939 -5.0903215 1.8606508e-16 -0.52569938
0.1293728 -0.05 0.053328249 -5.0882822 -7.9623059e-17 -0.5462321
0.12618928 -0.05 0.052980648 -5.087493 3.6446083e-16 -0.56708706
0.123053 -0.05 0.052625333 -5.0889362 1.1204225e-16 -0.58844164
0.11996333 -0.05 0.052262438 -5.093089 6.3676542e-16 -0.61066733
0.11691965 -0.05 0.051891988 -5.0988481 -9.1745998e-17 -0.63351912
0.11392139 -0.05 0.05151407 -5.1062841 -6.8852431e-16 -0.6570026
0.11096791 -0.05 0.051128826 -5.115716 4.7648687e-16 -0.68130485
0.10805866 -0.05 0.0507363 -5.1266863 1.9758362e-17 -0.70628722
0.10519305 -0.05 0.050336595 -5.1386277 2.2768364e-16 -0.73172
0.10237049 -0.05 0.049929878 -5.1528209 1.3298558e-16 -0.75828726
0.099590449 -0.05 0.049516101 -5.1681883 -8.6826166e-17 -0.78569028
0.096852392 -0.05 0.049095327 -5.184797 1.4755173e-16 -0.81379603
0.094155763 -0.05 0.048667708 -5.2041693 2.6927325e-16 -0.84335608
0.091500059 -0.05 0.048233169 -5.2248949 -4.3282146e-16 -0.87391404
0.088884761 -0.05 0.047791785 -5.2461417 -5.4827898e-17 -0.9051805
0.086309359 -0.05 0.047343628 -5.2691152 4.2273236e-16 -0.93767694
0.08377336 -0.05 0.046888734 -5.2932814 -1.7624057e-16 -0.97119702
0.081276277 -0.05 0.046427153 -5.3203961 -5.3654386e-16 -1.0065992
0.078817661 -0.05 0.045958788 -5.3488912 -1.326905e-16 -1.0433014
0.076397053 -0.05 0.045483635 -5.3784984 -5.1805542e-16 -1.0811489
0.074013988 -0.05 0.045001776 -5.4090865 6.4528529e-17 -1.1203762
0.071668021 -0.05 0.044513235 -5.4405718 -4.3794963e-16 -1.1613081
0.069358748 -0.05 0.044017907 -5.4716401 -5.4559302e-16 -1.2034292
0.067085753 -0.05 0.043515756 -5.5025882 -4.9672581e-16 -1.2467835
0.064848629 -0.05 0.043006784 -5.5355527 2.6558127e-16 -1.2924614
0.062646994 -0.05 0.042490905 -5.5714346 1.2432709e-16 -1.34085
0.060480481 -0.05 0.041968039 -5.6094748 4.4356289e-16 -1.3916494
0.058348724 -0.05 0.041438129 -5.6486639 1.0954983e-16 -1.4445234
0.05625138 -0.05 0.040901077 -5.6879402 -2.1302919e-16 -1.4991351
0.054188101 -0.05 0.040356855 -5.7272333 1.0620851e-16 -1.5559143
0.052158591 -0.05 0.039805276 -5.7670587 -2.3182328e-16 -1.6152915
0.050162559 -0.05 0.039246193 -5.8063972 7.0226372e-17 -1.6771832
0.048199699 -0.05 0.038679545 -5.8478145 3.2223853e-16 -1.7430031
0.046269757 -0.05 0.038105151 -5.8887956 -2.8865539e-16 -1.8117956
0.044372494 -0.05 0.03752283 -5.9288738 -1.8140367e-16 -1.8837004
0.042507713 -0.05 0.036932305 -5.9675453 2.5213257e-16 -1.958136
0.040675212 -0.05 0.036333387 -6.0059633 4.120737e-16 -2.0363144
0.038874791 -0.05 0.035725928 -6.0483096 8.0871287e-16 -2.1209663
0.037106314 -0.05 0.035109643 -6.0945792 -9.0837672e-16 -2.2123497
0.035369676 -0.05 0.034484227 -6.1409517 5.6397666e-16 -2.3080407
0.033664795 -0.05 0.033849366 -6.1832075 -2.1360573e-16 -2.4065371
0.031991617 -0.05 0.033204747 -6.2195715 -5.1043429e-16 -2.5083334
0.030350131 -0.05 0.032550014 -6.2514766 3.1904865e-17 -2.6172441
0.028740386 -0.05 0.031884735 -6.2832346 2.3326697e-16 -2.7358834
0.027162447 -0.05 0.03120853 -6.3104563 -1.5288181e-16 -2.8586066
0.025616456 -0.05 0.030520909 -6.3239209 -1.3856003e-16 -2.9825134
0.024102618 -0.05 0.029821354 -6.3334533 -8.1740284e-16 -3.1107538
0.022621185 -0.05 0.029109352 -6.3450401 5.44292e-16 -3.2479796
0.021172532 -0.05 0.028384269 -6.3585158 2.3342002e-16 -3.3953248
0.019757058 -0.05 0.027645527 -6.3495981 -4.1730773e-16 -3.5418408
0.018375327 -0.05 0.026892396 -6.2892453 -2.6249628e-16 -3.6780512
0.01702799 -0.05 0.026124106 -6.1588701 -1.6220834e-16 -3.8016778
0.01571579 -0.05 0.025339905 -5.9661746 -4.3908711e-16 -3.9245094
0.014439657 -0.05 0.024538929 -5.7410204 -4.4791482e-16 -4.0678417
0.013200704 -0.05 0.023720305 -5.5398949 6.9317884e-16 -4.27813
0.012000238 -0.05 0.022883118 -5.3699125 -3.9544669e-16 -4.584688
0.010839795 -0.05 0.022026347 -5.227477 -1.4981107e-16 -4.9998722
0.009721104 -0.05 0.021148912 -5.1236877 -1.0357564e-16 -5.5019106
0.0086462152 -0.05 0.020249919 -5.0862195 -3.1500328e-17 -6.0766192
0.0076176034 -0.05 0.019328491 -5.1508507 -1.2006485e-16 -6.7175436
0.0066379808 -0.05 0.01838349 -5.2137838 2.069301e-16 -7.3461427
0.005710392 -0.05 0.017414134 -5.1796619 1.4929529e-16 -7.8737112
0.0048385658 -0.05 0.016420191 -4.996071 -2.026933e-16 -8.2546376
0.0040263652 -0.05 0.015401214 -4.6490393 2.0626726e-16 -8.4533955
0.00327788 -0.05 0.014357303 -4.156344 -3.477754e-16 -8.4510918
0.0025978728 -0.05 0.01328969 -3.5615306 -5.2955297e-18 -8.2163342
0.0019909447 -0.05 0.01219976 -2.9072681 -1.2710498e-16 -7.7649092
0.0014614826 -0.05 0.011089932 -2.2424366 1.2177672e-16 -7.1051548
0.0010134881 -0.05 0.0099641679 -1.6041345 1.1252244e-16 -6.2455816
0.00065012401 -0.05 0.0088268079 -1.0387356 1.2317305e-17 -5.2453345
0.00037324273 -0.05 0.0076831234 -0.63079394 2.0862138e-16 -4.1576354
0.00018304222 -0.05 0.0065391698 -0.35526957 -1.7774426e-16 -3.0303685
7.8140853e-05 -0.05 0.0054010395 -0.20091549 2.6193009e-17 -1.9349764
0.99676272 -0.05 -0.013992954 -56.394947 3.0355257e-16 8.8648464
0.99056805 -0.05 -0.01297712 -51.320342 6.7110425e-16 8.3352188
0.98437223 -0.05 -0.011968253 -51.061597 -1.606353e-16 8.2691747
0.9781753 -0.05 -0.010966326 -50.823969 -6.2962897e-16 8.1726514
0.97197726 -0.05 -0.0099712322 -50.534558 -9.5347374e-16 8.0702012
0.96577815 -0.05 -0.0089828152 -50.213263 -4.5664955e-16 7.9638831
0.95957798 -0.05 -0.0080010921 -49.872101 -6.1384394e-18 7.8548607
0.95337677 -0.05 -0.0070259996 -49.51044 -6.6545426e-16 7.7451906
0.94717454 -0.05 -0.0060573832 -49.137714 9.0470736e-16 7.6348051
0.94097131 -0.05 -0.0050951591 -48.754132 -2.769162e-16 7.5243036
0.93476709 -0.05 -0.0041393223 -48.363342 -3.4783292e-16 7.4132389
0.92856191 -0.05 -0.0031898131 -47.964954 4.322305e-16 7.303136
0.92235577 -0.05 -0.0022465551 -47.561886 -1.5265046e-15 7.1930229
0.91614869 -0.05 -0.0013095137 -47.153173 -1.211175e-15 7.083987
0.90994069 -0.05 -0.00037853828 -46.740656 8.6195129e-16 6.9755802
0.90373179 -0.05 0.00054636854 -46.321215 -1.0814203e-15 6.8671177
0.89752201 -0.05 0.001465238 -45.897551 2.4437528e-16 6.7596943
0.89131134 -0.05 0.0023782056 -45.468572 -1.4159207e-15 6.6527996
0.8850998 -0.05 0.003285285 -45.034582 -1.7520315e-15 6.5457877
0.87888741 -0.05 0.0041864195 -44.593164 -1.8104201e-15 6.4389789
0.87267418 -0.05 0.005081746 -44.147215 1.0912776e-16 6.3333191
0.86646012 -0.05 0.0059713325 -43.697589 8.9883811e-16 6.2275886
0.86024524 -0.05 0.0068551503 -43.246316 3.4362746e-16 6.1229312
0.85402955 -0.05 0.0077332856 -42.794309 -4.8591768e-16 6.0193894
0.84781307 -0.05 0.0086058007 -42.344704 -3.6749722e-16 5.9171435
0.84159581 -0.05 0.0094726819 -41.896697 8.3563863e-16 5.8158122
0.83537775 -0.05 0.010333893 -41.450125 -6.0286174e-16 5.7159353
0.82915893 -0.05 0.011189608 -41.005501 4.9194853e-16 5.6178865
0.82293937 -0.05 0.012039789 -40.562173 4.8625947e-16 5.519887
0.81671903 -0.05 0.012884387 -40.119072 2.4054088e-17 5.4236629
0.81049795 -0.05 0.013723483 -39.674244 5.9002207e-16 5.3278582
0.80427613 -0.05 0.014557085 -39.224846 -2.5869397e-16 5.2328641
0.79805359 -0.05 0.015385226 -38.771704 2.6468338e-16 5.1377846
0.79183031 -0.05 0.016207861 -38.313893 5.0102205e-16 5.0430885
0.78560633 -0.05 0.017025075 -37.854285 -1.1069431e-16 4.9491055
0.77938163 -0.05 0.017836833 -37.39439 1.2501049e-15 4.8553567
0.77315621 -0.05 0.018643104 -36.937914 -2.9511637e-16 4.7631929
0.76693009 -0.05 0.019443948 -36.486383 -9.699069e-16 4.6723493
0.76070327 -0.05 0.020239352 -36.040084 -9.7443077e-16 4.5829262
0.75447575 -0.05 0.021029305 -35.59813 6.3302585e-16 4.4947944
0.74824756 -0.05 0.02181378 -35.160098 -1.7498858e-15 4.4078812
0.74201867 -0.05 0.022592759 -34.72383 -1.0437603e-15 4.3220004
0.73578909 -0.05 0.023366229 -34.287395 -2.2122925e-15 4.2368708
0.72955883 -0.05 0.024134155 -33.847612 9.9524057e-16 4.1521714
0.72332789 -0.05 0.02489657 -33.402922 5.6173848e-16 4.0678496
0.71709628 -0.05 0.025653503 -32.952258 -9.1309511e-16 3.9831223
0.71086399 -0.05 0.02640478 -32.496047 1.0940311e-16 3.8979159
0.70463103 -0.05 0.027150452 -32.039767 -2.0816361e-16 3.8139601
0.69839739 -0.05 0.027890483 -31.589066 1.164227e-16 3.7303974
0.69216307 -0.05 0.028624781 -31.14536 3.0254164e-16 3.6489281
0.68592808 -0.05 0.029353403 -30.709316 -1.9876429e-16 3.5687175
0.67969243 -0.05 0.03007625 -30.279088 2.8783607e-16 3.4899455
0.67345611 -0.05 0.030793332 -29.854143 1.6277936e-15 3.412521
0.66721911 -0.05 0.031504534 -29.42973 -1.0889933e-15 3.3355094
0.66098145 -0.05 0.032209754 -28.999973 1.8801065e-15 3.2590851
0.65474311 -0.05 0.032909078 -28.559733 -1.2336018e-15 3.1822731
0.6485041 -0.05 0.033602418 -28.10806 4.1138179e-16 3.1042291
0.64226442 -0.05 0.03428961 -27.649934 1.3072117e-15 3.0258824
0.63602406 -0.05 0.03497062 -27.193678 -6.9705937e-16 2.948315
0.62978303 -0.05 0.03564545 -26.744111 2.3774712e-16 2.8720749
0.62354131 -0.05 0.036313964 -26.299934 3.4778395e-16 2.7967701
0.61729892 -0.05 0.036976075 -25.861908 4.8486724e-16 2.7230729
0.61105584 -0.05 0.037631783 -25.428825 6.648693e-16 2.6505111
0.60481209 -0.05 0.03828094 -24.996749 1.6116174e-15 2.5788537
0.59856765 -0.05 0.038923476 -24.559797 -3.4072625e-17 2.5077747
0.59232253 -0.05 0.039559307 -24.108285 5.3363614e-17 2.4359308
0.58607671 -0.05 0.040188343 -23.636287 7.722015e-17 2.3627533
0.5798302 -0.05 0.040810466 -23.147179 8.4468084e-16 2.287959
0.57358299 -0.05 0.041425533 -22.65626 8.5448072e-16 2.2134532
0.5673351 -0.05 0.04203351 -22.175747 -4.3511319e-16 2.1405935
0.56108651 -0.05 0.042634277 -21.705059 5.4678931e-16 2.0692172
0.5548372 -0.05 0.043227671 -21.244052 4.4096288e-16 1.9995618
0.54858719 -0.05 0.043813619 -20.792297 -3.3380764e-16 1.9317165
0.54233648 -0.05 0.044391962 -20.34643 -1.0302618e-17 1.8652807
0.53608506 -0.05 0.044962558 -19.899634 -1.3161772e-16 1.8002767
0.52983293 -0.05 0.045525337 -19.439933 4.2488023e-16 1.7356361
0.52358009 -0.05 0.046080127 -18.954973 -4.6528589e-16 1.6695191
0.51732652 -0.05 0.046626786 -18.450935 4.216771e-16 1.6020185
0.51107223 -0.05 0.047165147 -17.954705 -2.4904741e-16 1.535421
0.50481723 -0.05 0.047695071 -17.465956 -4.7157247e-16 1.4704199
0.49856151 -0.05 0.048216434 -16.987766 1.0763303e-15 1.4068306
0.49230506 -0.05 0.048729039 -16.52165 -6.8489917e-16 1.3447355
0.48604789 -0.05 0.049232684 -16.062893 1.6490263e-16 1.2839105
0.47978999 -0.05 0.049727243 -15.611657 -4.288289e-16 1.2241422
0.47353137 -0.05 0.050212578 -15.168192 -1.3778445e-16 1.1658833
0.46727203 -0.05 0.050688438 -14.731501 -5.4377842e-17 1.1091283
0.46101195 -0.05 0.051154609 -14.301224 6.9597389e-16 1.0539363
0.45475114 -0.05 0.05161093 -13.876769 3.9310627e-16 1.000246
0.44848962 -0.05 0.052057216 -13.458406 4.1192434e-16 0.94802195
0.44222736 -0.05 0.052493241 -13.048617 1.5859249e-16 0.89753247
0.4359644 -0.05 0.052918763 -12.651745 2.1515991e-16 0.8487717
0.42970071 -0.05 0.053333575 -12.269446 -2.9990777e-16 0.80192391
0.42343631 -0.05 0.053737476 -11.902897 2.9145347e-16 0.75699623
0.4171712 -0.05 0.054130216 -11.550961 -2.8052746e-16 0.71385499
0.41090537 -0.05 0.054511519 -11.214226 -7.8502106e-17 0.67230247
0.40463886 -0.05 0.054881158 -10.895218 -5.2102908e-16 0.63251121
0.39837165 -0.05 0.055238849 -10.594635 5.8719702e-16 0.59450266
0.39210375 -0.05 0.055584282 -10.309863 -4.7212969e-16 0.55823585
0.38583519 -0.05 0.055917241 -10.03822 4.6277235e-17 0.52344747
0.37956595 -0.05 0.056237487 -9.7780647 -6.9743416e-17 0.48982288
0.37329606 -0.05 0.056544619 -9.5281114 -9.1616637e-17 0.4571569
0.36702552 -0.05 0.056838317 -9.2872873 -2.4698289e-16 0.42563484
0.36075437 -0.05 0.05711834 -9.0557336 -4.1186102e-16 0.39505386
0.35448259 -0.05 0.05738435 -8.8326467 -1.5959231e-16 0.36535955
0.34821023 -0.05 0.057635991 -8.6179214 1.8168764e-16 0.33647755
0.3419373 -0.05 0.057872873 -8.4107858 3.1638527e-16 0.30837477
0.33566381 -0.05 0.058094669 -8.2112881 -1.7357403e-17 0.28107096
0.3293898 -0.05 0.058300986 -8.0190344 8.0907752e-17 0.25438939
0.32311527 -0.05 0.058491398 -7.8334185 2.6718418e-16 0.22842169
0.31684028 -0.05 0.058665516 -7.6547601 1.6319237e-16 0.20310875
0.31056485 -0.05 0.058822925 -7.4837194 1.2229433e-17 0.17843015
0.30428901 -0.05 0.058963189 -7.2899934 1.3954348e-17 0.15338436
