# yPlus  FACE_DATA 448
# x y z  yPlus
0.29599185 -0.05 -0.060904675 22.53452
0.29035594 -0.05 -0.060782241 22.719862
0.28480149 -0.05 -0.060647004 23.020344
0.27932737 -0.05 -0.060499153 23.305194
0.27393248 -0.05 -0.060338935 23.582397
0.26861568 -0.05 -0.060166624 23.854797
0.26337589 -0.05 -0.059982474 24.123892
0.25821206 -0.05 -0.059786711 24.388776
0.25312312 -0.05 -0.059579604 24.646371
0.24810802 -0.05 -0.059361378 24.898886
0.24316574 -0.05 -0.059132198 25.146175
0.23829529 -0.05 -0.058892323 25.388209
0.23349565 -0.05 -0.058641978 25.623093
0.22876584 -0.05 -0.058381406 25.849588
0.22410489 -0.05 -0.058110835 26.070171
0.21951186 -0.05 -0.057830417 26.283599
0.21498578 -0.05 -0.057540398 26.488515
0.21052576 -0.05 -0.057240985 26.683972
0.20613087 -0.05 -0.056932294 26.866601
0.20180021 -0.05 -0.056614572 27.037693
0.1975329 -0.05 -0.056288017 27.200502
0.19332805 -0.05 -0.055952843 27.360409
0.18918481 -0.05 -0.055609238 27.524271
0.18510233 -0.05 -0.055257271 27.685246
0.18107978 -0.05 -0.05489718 27.838387
0.17711634 -0.05 -0.05452914 27.975646
0.17321118 -0.05 -0.054153295 28.09024
0.16936352 -0.05 -0.053769841 28.184121
0.16557255 -0.05 -0.053378923 28.26518
0.16183752 -0.05 -0.052980665 28.359052
0.15815766 -0.05 -0.052575183 28.473333
0.1545322 -0.05 -0.052162688 28.609996
0.15096043 -0.05 -0.051743279 28.760702
0.1474416 -0.05 -0.051317086 28.925708
0.14397498 -0.05 -0.050884244 29.109712
0.1405599 -0.05 -0.050444835 29.316594
0.13719564 -0.05 -0.049999002 29.545694
0.13388153 -0.05 -0.049546849 29.789943
0.13061686 -0.05 -0.049088532 30.039408
0.127401 -0.05 -0.048624149 30.289108
0.1242333 -0.05 -0.048153712 30.533231
0.1211131 -0.05 -0.047677395 30.770124
0.11803977 -0.05 -0.047195304 30.999554
0.1150127 -0.05 -0.046707444 31.219304
0.11203128 -0.05 -0.046213876 31.428647
0.10909492 -0.05 -0.045714719 31.627055
0.10620302 -0.05 -0.045209997 31.815016
0.103355 -0.05 -0.044699788 31.990451
0.10055028 -0.05 -0.044184238 32.156067
0.097788322 -0.05 -0.043663276 32.311268
0.095068581 -0.05 -0.043136945 32.454376
0.092390503 -0.05 -0.042605377 32.588782
0.089753587 -0.05 -0.042068477 32.713817
0.087157311 -0.05 -0.041526298 32.82718
0.084601163 -0.05 -0.040978895 32.932194
0.08208465 -0.05 -0.040426284 33.026525
0.079607283 -0.05 -0.039868495 33.113029
0.077168614 -0.05 -0.039305412 33.189486
0.074768189 -0.05 -0.038737019 33.255301
0.072405538 -0.05 -0.038163375 33.31113
0.070080216 -0.05 -0.03758449 33.358535
0.067791822 -0.05 -0.037000241 33.396885
0.065539943 -0.05 -0.036410577 33.425319
0.063324172 -0.05 -0.035815484 33.446469
0.061144131 -0.05 -0.035214862 33.459382
0.058999455 -0.05 -0.034608616 33.461215
0.056889782 -0.05 -0.033996675 33.452719
0.054814773 -0.05 -0.033378928 33.434175
0.05277408 -0.05 -0.032755333 33.404083
0.050767415 -0.05 -0.032125693 33.365291
0.048794493 -0.05 -0.031489849 33.312612
0.046855012 -0.05 -0.030847728 33.250486
0.044948722 -0.05 -0.030199139 33.176852
0.043075394 -0.05 -0.029543893 33.093002
0.041234841 -0.05 -0.028881706 32.997428
0.039426868 -0.05 -0.028212379 32.888861
0.037651283 -0.05 -0.027535758 32.768615
0.035907958 -0.05 -0.026851553 32.639104
0.0341968 -0.05 -0.026159456 32.4956
0.032517743 -0.05 -0.025459149 32.339426
0.030870742 -0.05 -0.024750315 32.171809
0.029255798 -0.05 -0.024032601 31.990867
0.027672981 -0.05 -0.023305577 31.797098
0.026122369 -0.05 -0.022568864 31.589443
0.024604122 -0.05 -0.02182198 31.368249
0.023118465 -0.05 -0.021064413 31.132158
0.021665671 -0.05 -0.020295662 30.880275
0.020246137 -0.05 -0.019515106 30.612807
0.018860286 -0.05 -0.018722187 30.325533
0.01750871 -0.05 -0.017916192 30.02164
0.016192088 -0.05 -0.017096381 29.692358
0.01491119 -0.05 -0.016262026 29.342291
0.013666983 -0.05 -0.015412307 28.96358
0.01246061 -0.05 -0.01454639 28.552688
0.011293413 -0.05 -0.01366341 28.100413
0.010166965 -0.05 -0.01276241 27.608128
0.0090830382 -0.05 -0.011842374 27.063811
0.0080437141 -0.05 -0.010902493 26.457497
0.0070514997 -0.05 -0.0099419805 25.774055
0.0061091496 -0.05 -0.0089598079 24.992785
0.005219736 -0.05 -0.0079553106 24.083136
0.0043869939 -0.05 -0.0069284005 23.027666
0.0036148009 -0.05 -0.00587878 21.793754
0.0029072396 -0.05 -0.0048067085 20.33003
0.0022690218 -0.05 -0.0037136 18.604637
0.0017046913 -0.05 -0.0026010186 16.567452
0.0012185381 -0.05 -0.0014715483 14.125662
0.00081440795 -0.05 -0.00032930328 11.109811
0.00049529318 -0.05 0.00082125618 8.0635466
0.00026284111 -0.05 0.0019747913 4.1746928
0.00011701541 -0.05 0.0031252439 5.3458498
5.6199898e-05 -0.05 0.0042665793 8.8462914
0.99674533 -0.05 -0.014892139 3.6196847
0.99051602 -0.05 -0.015667688 0.91638535
0.98428583 -0.05 -0.016436231 1.0053734
0.97805478 -0.05 -0.017197796 0.17601688
0.97182289 -0.05 -0.017952489 0.75523774
0.96559021 -0.05 -0.01870047 0.60486796
0.95935671 -0.05 -0.019441721 0.70994845
0.95312244 -0.05 -0.020176306 0.69172426
0.94688739 -0.05 -0.02090438 0.72287131
0.94065159 -0.05 -0.021626027 0.72883155
0.93441507 -0.05 -0.022341255 0.745353
0.9281778 -0.05 -0.023050122 0.75655353
0.92193983 -0.05 -0.023752706 0.77266489
0.91570117 -0.05 -0.02444904 0.79658142
0.90946181 -0.05 -0.025139279 0.83135768
0.90322179 -0.05 -0.025823418 0.92979983
0.89698111 -0.05 -0.02650149 1.0703538
0.8907398 -0.05 -0.027173631 1.018737
0.88449783 -0.05 -0.027839854 1.0651282
0.87825524 -0.05 -0.028500103 1.000294
0.87201204 -0.05 -0.029154518 1.0387758
0.86576823 -0.05 -0.029803164 0.96460431
0.85952381 -0.05 -0.030446013 0.98772764
0.85327882 -0.05 -0.031083154 0.96294921
0.84703326 -0.05 -0.031714647 0.92800168
0.84078712 -0.05 -0.032340481 0.86959133
0.83454041 -0.05 -0.032960617 0.78780409
0.82829317 -0.05 -0.033575234 0.67550591
0.82204537 -0.05 -0.03418429 0.50663007
0.81579703 -0.05 -0.034787739 0.19001836
0.80954816 -0.05 -0.03538566 0.45256386
0.80329877 -0.05 -0.035978064 0.62061603
0.79704885 -0.05 -0.036564982 0.76782668
0.79079841 -0.05 -0.03714637 0.90327861
0.78454749 -0.05 -0.037722313 1.0324538
0.77829605 -0.05 -0.038292777 1.1583685
0.77204411 -0.05 -0.038857731 1.2832234
0.76579168 -0.05 -0.039417235 1.4069616
0.75953877 -0.05 -0.039971276 1.5299214
0.75328537 -0.05 -0.040519842 1.6551721
0.74703149 -0.05 -0.041062908 1.7834848
0.74077715 -0.05 -0.041600456 1.9152046
0.73452231 -0.05 -0.042132473 2.0499482
0.72826702 -0.05 -0.042658923 2.187487
0.72201127 -0.05 -0.04317984 2.3291213
0.71575505 -0.05 -0.043695253 2.4739573
0.70949837 -0.05 -0.044204987 2.6198755
0.70324123 -0.05 -0.044709095 2.7686691
0.69698364 -0.05 -0.045207541 2.9206865
0.69072559 -0.05 -0.045700231 3.0737241
0.6844671 -0.05 -0.046187223 3.2294992
0.67820815 -0.05 -0.046668419 3.3871611
0.67194877 -0.05 -0.047143829 3.5485844
0.66568894 -0.05 -0.047613337 3.7127238
0.65942867 -0.05 -0.048076842 3.8781644
0.65316796 -0.05 -0.048534428 4.0471247
0.64690681 -0.05 -0.04898601 4.2236995
0.64064522 -0.05 -0.049431421 4.4123527
0.63438319 -0.05 -0.04987063 4.6036325
0.62812073 -0.05 -0.050303637 4.7986783
0.62185784 -0.05 -0.050730307 4.9966519
0.61559451 -0.05 -0.051150553 5.1965182
0.60933076 -0.05 -0.051564372 5.3995912
0.60306657 -0.05 -0.05197162 5.6055756
0.59680195 -0.05 -0.052372226 5.8151943
0.59053691 -0.05 -0.052766106 6.0289075
0.58427144 -0.05 -0.053153168 6.2459533
0.57800555 -0.05 -0.053533295 6.4667388
0.57173924 -0.05 -0.053906345 6.6904085
0.5654725 -0.05 -0.054272284 6.9186475
0.55920535 -0.05 -0.054630991 7.1515821
0.55293777 -0.05 -0.054982302 7.3886642
0.54666978 -0.05 -0.055326149 7.6304283
0.54040139 -0.05 -0.055662366 7.8775105
0.53413258 -0.05 -0.055990815 8.1285449
0.52786336 -0.05 -0.056311425 8.3852224
0.52159374 -0.05 -0.056624025 8.6468773
0.51532371 -0.05 -0.056928472 8.9137115
0.50905329 -0.05 -0.0572246 9.1865883
0.50278248 -0.05 -0.057512269 9.4736388
0.49651127 -0.05 -0.057791356 9.7944244
0.49023969 -0.05 -0.058061664 10.142294
0.48396772 -0.05 -0.058322989 10.489985
0.47769538 -0.05 -0.058575208 10.835527
0.47142266 -0.05 -0.058818182 11.182627
0.4651496 -0.05 -0.05905166 11.533178
0.45887618 -0.05 -0.059275428 11.887145
0.45260242 -0.05 -0.059489325 12.24375
0.44632832 -0.05 -0.059693166 12.604618
0.44005389 -0.05 -0.059886725 12.970207
0.43377915 -0.05 -0.060069764 13.340711
0.42750411 -0.05 -0.060242071 13.715595
0.42122877 -0.05 -0.060403448 14.094746
0.41495315 -0.05 -0.060553645 14.478437
0.40867728 -0.05 -0.060692387 14.866713
0.40240116 -0.05 -0.060819445 15.259639
0.39612481 -0.05 -0.060934539 15.656782
0.38984824 -0.05 -0.061037356 16.056719
0.38357149 -0.05 -0.061127683 16.460814
0.37729455 -0.05 -0.06120528 16.869702
0.37101747 -0.05 -0.061269748 17.282568
0.36474028 -0.05 -0.061320769 17.697709
0.35846298 -0.05 -0.061358099 18.1168
0.35218562 -0.05 -0.061381403 18.539556
0.34590821 -0.05 -0.061390326 18.966315
0.33963081 -0.05 -0.06138448 19.395715
0.33335344 -0.05 -0.061363536 19.82809
0.32707613 -0.05 -0.061327105 20.262276
0.32079895 -0.05 -0.061274762 20.697664
0.31452192 -0.05 -0.061206119 21.135199
0.30824509 -0.05 -0.061120761 21.576498
0.30196852 -0.05 -0.061018256 22.125813
0.29831241 -0.05 0.059080789 22.915541
0.29267599 -0.05 0.059176368 22.681102
0.28712047 -0.05 0.059256002 22.371427
0.28164473 -0.05 0.059319927 22.075246
0.27624767 -0.05 0.059368429 21.791923
0.27092819 -0.05 0.059401828 21.521709
0.2656852 -0.05 0.05942042 21.264368
0.26051766 -0.05 0.059424471 21.019185
0.25542451 -0.05 0.059414289 20.786274
0.25040473 -0.05 0.059390142 20.564847
0.24545729 -0.05 0.059352233 20.353027
0.2405812 -0.05 0.059300861 20.149859
0.23577547 -0.05 0.059236287 19.953863
0.23103912 -0.05 0.059158796 19.764434
0.22637119 -0.05 0.059068649 19.583053
0.22177075 -0.05 0.058966036 19.408928
0.21723685 -0.05 0.058851242 19.242643
0.21276858 -0.05 0.058724506 19.084637
0.20836504 -0.05 0.05858598 18.933287
0.20402534 -0.05 0.058435947 18.788895
0.19974858 -0.05 0.058274637 18.651556
0.19553392 -0.05 0.0581023 18.521253
0.19138049 -0.05 0.057919156 18.398742
0.18728746 -0.05 0.057725308 18.282073
0.183254 -0.05 0.057521024 18.171333
0.17927928 -0.05 0.05730651 18.067147
0.17536253 -0.05 0.057081946 17.967953
0.17150291 -0.05 0.056847554 17.875119
0.16769966 -0.05 0.056603511 17.787837
0.16395203 -0.05 0.05634997 17.706381
0.16025924 -0.05 0.056087079 17.629523
0.15662054 -0.05 0.055815075 17.558345
0.15303522 -0.05 0.055534088 17.493063
0.14950254 -0.05 0.055244275 17.432659
0.14602179 -0.05 0.054945798 17.378136
0.14259226 -0.05 0.054638766 17.327663
0.13921327 -0.05 0.05432335 17.281393
0.13588416 -0.05 0.05399968 17.239167
0.13260422 -0.05 0.053667939 17.201114
0.1293728 -0.05 0.053328249 17.167945
0.12618928 -0.05 0.052980648 17.138018
0.123053 -0.05 0.052625333 17.11231
0.11996333 -0.05 0.052262438 17.092334
0.11691965 -0.05 0.051891988 17.075884
0.11392139 -0.05 0.05151407 17.063205
0.11096791 -0.05 0.051128826 17.054238
0.10805866 -0.05 0.0507363 17.049126
0.10519305 -0.05 0.050336595 17.045576
0.10237049 -0.05 0.049929878 17.046543
0.099590449 -0.05 0.049516101 17.05063
0.096852392 -0.05 0.049095327 17.056762
0.094155763 -0.05 0.048667708 17.068035
0.091500059 -0.05 0.048233169 17.082832
0.088884761 -0.05 0.047791785 17.098028
0.086309359 -0.05 0.047343628 17.117294
0.08377336 -0.05 0.046888734 17.138132
0.081276277 -0.05 0.046427153 17.164944
0.078817661 -0.05 0.045958788 17.194567
0.076397053 -0.05 0.045483635 17.226318
0.074013988 -0.05 0.045001776 17.25956
0.071668021 -0.05 0.044513235 17.295177
0.069358748 -0.05 0.044017907 17.331033
0.067085753 -0.05 0.043515756 17.366908
0.064848629 -0.05 0.043006784 17.406635
0.062646994 -0.05 0.042490905 17.452268
0.060480481 -0.05 0.041968039 17.502131
0.058348724 -0.05 0.041438129 17.554649
0.05625138 -0.05 0.040901077 17.60827
0.054188101 -0.05 0.040356855 17.662321
0.052158591 -0.05 0.039805276 17.720292
0.050162559 -0.05 0.039246193 17.777775
0.048199699 -0.05 0.038679545 17.840993
0.046269757 -0.05 0.038105151 17.905465
0.044372494 -0.05 0.03752283 17.971731
0.042507713 -0.05 0.036932305 18.039189
0.040675212 -0.05 0.036333387 18.108549
0.038874791 -0.05 0.035725928 18.18788
0.037106314 -0.05 0.035109643 18.278545
0.035369676 -0.05 0.034484227 18.373846
0.033664795 -0.05 0.033849366 18.468685
0.031991617 -0.05 0.033204747 18.560565
0.030350131 -0.05 0.032550014 18.655422
0.028740386 -0.05 0.031884735 18.760295
0.027162447 -0.05 0.03120853 18.867132
0.025616456 -0.05 0.030520909 18.965717
0.024102618 -0.05 0.029821354 19.069147
0.022621185 -0.05 0.029109352 19.189793
0.021172532 -0.05 0.028384269 19.33012
0.019757058 -0.05 0.027645527 19.453926
0.018375327 -0.05 0.026892396 19.527893
0.01702799 -0.05 0.026124106 19.525944
0.01571579 -0.05 0.025339905 19.470896
0.014439657 -0.05 0.024538929 19.412931
0.013200704 -0.05 0.023720305 19.463148
0.012000238 -0.05 0.022883118 19.661649
0.010839795 -0.05 0.022026347 20.029128
0.009721104 -0.05 0.021148912 20.559115
0.0086462152 -0.05 0.020249919 21.26949
0.0076176034 -0.05 0.019328491 22.183875
0.0066379808 -0.05 0.01838349 23.132105
0.005710392 -0.05 0.017414134 23.938925
0.0048385658 -0.05 0.016420191 24.535724
0.0040263652 -0.05 0.015401214 24.866259
0.00327788 -0.05 0.014357303 24.905598
0.0025978728 -0.05 0.01328969 24.618271
0.0019909447 -0.05 0.01219976 24.002372
0.0014614826 -0.05 0.011089932 23.028028
0.0010134881 -0.05 0.0099641679 21.647063
0.00065012401 -0.05 0.0088268079 19.874319
0.00037324273 -0.05 0.0076831234 17.70535
0.00018304222 -0.05 0.0065391698 15.100111
7.8140853e-05 -0.05 0.0054010395 12.025385
0.99676272 -0.05 -0.013992954 71.015716
0.99056805 -0.05 -0.01297712 61.852871
0.98437223 -0.05 -0.011968253 61.683392
0.9781753 -0.05 -0.010966326 61.531581
0.97197726 -0.05 -0.0099712322 61.352473
0.96577815 -0.05 -0.0089828152 61.153417
0.95957798 -0.05 -0.0080010921 60.943513
0.95337677 -0.05 -0.0070259996 60.719512
0.94717454 -0.05 -0.0060573832 60.488694
0.94097131 -0.05 -0.0050951591 60.250262
0.93476709 -0.05 -0.0041393223 60.007175
0.92856191 -0.05 -0.0031898131 59.757566
0.92235577 -0.05 -0.0022465551 59.504846
0.91614869 -0.05 -0.0013095137 59.247424
0.90994069 -0.05 -0.00037853828 58.986915
0.90373179 -0.05 0.00054636854 58.720407
0.89752201 -0.05 0.001465238 58.450007
0.89131134 -0.05 0.0023782056 58.174726
0.8850998 -0.05 0.003285285 57.895642
0.87888741 -0.05 0.0041864195 57.610385
0.87267418 -0.05 0.005081746 57.320447
0.86646012 -0.05 0.0059713325 57.026784
0.86024524 -0.05 0.0068551503 56.730954
0.85402955 -0.05 0.0077332856 56.432685
0.84781307 -0.05 0.0086058007 56.134581
0.84159581 -0.05 0.0094726819 55.835972
0.83537775 -0.05 0.010333893 55.536985
0.82915893 -0.05 0.011189608 55.237375
0.82293937 -0.05 0.012039789 54.937471
0.81671903 -0.05 0.012884387 54.63578
0.81049795 -0.05 0.013723483 54.331492
0.80427613 -0.05 0.014557085 54.021965
0.79805359 -0.05 0.015385226 53.708511
0.79183031 -0.05 0.016207861 53.389496
0.78560633 -0.05 0.017025075 53.067427
0.77938163 -0.05 0.017836833 52.743361
0.77315621 -0.05 0.018643104 52.419691
0.76693009 -0.05 0.019443948 52.097677
0.76070327 -0.05 0.020239352 51.777583
0.75447575 -0.05 0.021029305 51.458332
0.74824756 -0.05 0.02181378 51.140263
0.74201867 -0.05 0.022592759 50.821356
0.73578909 -0.05 0.023366229 50.500353
0.72955883 -0.05 0.024134155 50.174778
0.72332789 -0.05 0.02489657 49.843517
0.71709628 -0.05 0.025653503 49.505629
0.71086399 -0.05 0.02640478 49.161464
0.70463103 -0.05 0.027150452 48.81406
0.69839739 -0.05 0.027890483 48.469166
0.69216307 -0.05 0.028624781 48.126872
0.68592808 -0.05 0.029353403 47.788331
0.67969243 -0.05 0.03007625 47.451841
0.67345611 -0.05 0.030793332 47.117247
0.66721911 -0.05 0.031504534 46.780888
0.66098145 -0.05 0.032209754 46.437756
0.65474311 -0.05 0.032909078 46.083495
0.6485041 -0.05 0.033602418 45.717272
0.64226442 -0.05 0.03428961 45.342782
0.63602406 -0.05 0.03497062 44.966825
0.62978303 -0.05 0.03564545 44.593097
0.62354131 -0.05 0.036313964 44.22103
0.61729892 -0.05 0.036976075 43.851076
0.61105584 -0.05 0.037631783 43.482307
0.60481209 -0.05 0.03828094 43.111064
0.59856765 -0.05 0.038923476 42.732438
0.59232253 -0.05 0.039559307 42.337729
0.58607671 -0.05 0.040188343 41.921227
0.5798302 -0.05 0.040810466 41.485088
0.57358299 -0.05 0.041425533 41.042673
0.5673351 -0.05 0.04203351 40.604828
0.56108651 -0.05 0.042634277 40.171486
0.5548372 -0.05 0.043227671 39.742425
0.54858719 -0.05 0.043813619 39.317473
0.54233648 -0.05 0.044391962 38.893632
0.53608506 -0.05 0.044962558 38.464378
0.52983293 -0.05 0.045525337 38.017571
0.52358009 -0.05 0.046080127 37.540609
0.51732652 -0.05 0.046626786 37.038403
0.51107223 -0.05 0.047165147 36.537341
0.50481723 -0.05 0.047695071 36.036549
0.49856151 -0.05 0.048216434 35.54003
0.49230506 -0.05 0.048729039 35.04905
0.48604789 -0.05 0.049232684 34.559296
0.47978999 -0.05 0.049727243 34.070473
0.47353137 -0.05 0.050212578 33.583363
0.46727203 -0.05 0.050688438 33.096695
0.46101195 -0.05 0.051154609 32.610156
0.45475114 -0.05 0.05161093 32.122854
0.44848962 -0.05 0.052057216 31.63532
0.44222736 -0.05 0.052493241 31.150183
0.4359644 -0.05 0.052918763 30.673318
0.42970071 -0.05 0.053333575 30.206611
0.42343631 -0.05 0.053737476 29.752475
0.4171712 -0.05 0.054130216 29.309885
0.41090537 -0.05 0.054511519 28.880155
0.40463886 -0.05 0.054881158 28.466638
0.39837165 -0.05 0.055238849 28.071712
0.39210375 -0.05 0.055584282 27.692113
0.38583519 -0.05 0.055917241 27.325326
0.37956595 -0.05 0.056237487 26.96912
0.37329606 -0.05 0.056544619 26.622611
0.36702552 -0.05 0.056838317 26.284113
0.36075437 -0.05 0.05711834 25.954581
0.35448259 -0.05 0.05738435 25.632613
0.34821023 -0.05 0.057635991 25.319258
0.3419373 -0.05 0.057872873 25.012982
0.33566381 -0.05 0.058094669 24.7145
0.3293898 -0.05 0.058300986 24.423109
0.32311527 -0.05 0.058491398 24.13864
0.31684028 -0.05 0.058665516 23.861554
0.31056485 -0.05 0.058822925 23.593686
0.30428901 -0.05 0.058963189 23.227247
