# p  FACE_DATA 448
# x y z  p
0.29605314 -0.05 -0.060858337 99452.493
0.29041712 -0.05 -0.060741577 99447.354
0.28486254 -0.05 -0.060611932 99442.909
0.27938828 -0.05 -0.060469594 99438.44
0.27399322 -0.05 -0.060314807 99434.092
0.26867625 -0.05 -0.060147849 99429.858
0.26343628 -0.05 -0.059968976 99425.798
0.25827225 -0.05 -0.059778413 99421.863
0.25318311 -0.05 -0.059576429 99417.964
0.24816779 -0.05 -0.059363252 99414.234
0.24322529 -0.05 -0.059139048 99410.664
0.2383546 -0.05 -0.058904078 99407.189
0.23355471 -0.05 -0.058658566 99403.824
0.22882463 -0.05 -0.058402757 99400.528
0.22416341 -0.05 -0.058136878 99397.4
0.2195701 -0.05 -0.057861085 99394.429
0.21504374 -0.05 -0.057575623 99391.508
0.21058341 -0.05 -0.057280701 99388.754
0.20618822 -0.05 -0.056976435 99386.158
0.20185724 -0.05 -0.056663074 99383.653
0.1975896 -0.05 -0.056340815 99381.336
0.19338442 -0.05 -0.056009875 99379.038
0.18924083 -0.05 -0.055670442 99376.895
0.185158 -0.05 -0.055322587 99374.935
0.18113509 -0.05 -0.054966545 99373.037
0.17717128 -0.05 -0.054602496 99371.352
0.17326575 -0.05 -0.054230584 99369.736
0.1694177 -0.05 -0.053851004 99368.261
0.16562635 -0.05 -0.053463903 99366.886
0.16189091 -0.05 -0.053069406 99365.718
0.15821064 -0.05 -0.05266763 99364.688
0.15458477 -0.05 -0.052258784 99363.744
0.15101258 -0.05 -0.051842973 99363.021
0.14749332 -0.05 -0.051420322 99362.332
0.14402628 -0.05 -0.050990972 99361.819
0.14061074 -0.05 -0.050555 99361.445
0.13724604 -0.05 -0.050112555 99361.288
0.13393146 -0.05 -0.049663738 99361.288
0.13066635 -0.05 -0.049208709 99361.346
0.12745002 -0.05 -0.048747564 99361.63
0.12428185 -0.05 -0.048280318 99362.15
0.12116118 -0.05 -0.047807142 99362.67
0.11808736 -0.05 -0.047328146 99363.342
0.11505979 -0.05 -0.046843333 99364.206
0.11207789 -0.05 -0.046352768 99365.328
0.10914102 -0.05 -0.045856569 99366.589
0.10624861 -0.05 -0.045354758 99368.189
0.10340008 -0.05 -0.044847417 99369.851
0.10059484 -0.05 -0.04433469 99371.655
0.097832362 -0.05 -0.043816509 99373.723
0.095112092 -0.05 -0.043292917 99375.893
0.09243348 -0.05 -0.042764046 99378.26
0.089796025 -0.05 -0.042229802 99381.073
0.087199204 -0.05 -0.041690237 99384.024
0.084642507 -0.05 -0.041145408 99387.352
0.082125439 -0.05 -0.040595331 99390.69
0.079647511 -0.05 -0.040040037 99394.273
0.077208277 -0.05 -0.03947941 99398.193
0.074807281 -0.05 -0.038913434 99402.503
0.072444053 -0.05 -0.03834217 99407.038
0.07011815 -0.05 -0.037765626 99411.958
0.067829168 -0.05 -0.037183681 99417.264
0.065576697 -0.05 -0.036596285 99422.731
0.063360328 -0.05 -0.036003424 99428.43
0.061179684 -0.05 -0.035404996 99434.611
0.059034399 -0.05 -0.03480091 99441.335
0.05692411 -0.05 -0.034191093 99448.693
0.05484848 -0.05 -0.033575436 99456.506
0.052807159 -0.05 -0.032953896 99464.504
0.050799862 -0.05 -0.032326277 99473.071
0.048826301 -0.05 -0.031692419 99482.091
0.046886175 -0.05 -0.031052251 99491.858
0.044979233 -0.05 -0.030405583 99502.349
0.043105246 -0.05 -0.029752223 99513.597
0.041264027 -0.05 -0.029091889 99525.506
0.039455381 -0.05 -0.028424383 99538.082
0.037679115 -0.05 -0.027749551 99551.651
0.035935102 -0.05 -0.027067102 99566.404
0.034223249 -0.05 -0.026376727 99582.46
0.032543487 -0.05 -0.025678111 99599.543
0.030895773 -0.05 -0.024970935 99617.123
0.029280109 -0.05 -0.024254848 99635.809
0.02769656 -0.05 -0.023529418 99656.576
0.026145206 -0.05 -0.022794267 99679.437
0.024626208 -0.05 -0.022048912 99704.312
0.023139789 -0.05 -0.021292841 99730.358
0.021686221 -0.05 -0.020525553 99758.296
0.020265903 -0.05 -0.019746428 99789.279
0.018879253 -0.05 -0.018954904 99822.839
0.017526866 -0.05 -0.01815027 99858.862
0.01620942 -0.05 -0.017331784 99897.164
0.014927683 -0.05 -0.01649872 99938.091
0.01368262 -0.05 -0.015650254 99982.334
0.012475376 -0.05 -0.014785552 100033.21
0.011307291 -0.05 -0.013903749 100090.37
0.010179937 -0.05 -0.013003882 100155.01
0.009095084 -0.05 -0.012084939 100227.33
0.008054814 -0.05 -0.011146104 100306.37
0.0070616331 -0.05 -0.010186591 100391.61
0.0061182946 -0.05 -0.0092053682 100482.31
0.00522787 -0.05 -0.008201767 100578.4
0.0043940945 -0.05 -0.0071756959 100681.76
0.0036208449 -0.05 -0.0061268534 100792.72
0.0029122046 -0.05 -0.0050554949 100908.78
0.0022728864 -0.05 -0.0039630294 101027.61
0.0017074359 -0.05 -0.0028510168 101146.36
0.0012201458 -0.05 -0.0017220366 101260.58
0.00081486582 -0.05 -0.00058019912 101364.39
0.00049459276 -0.05 0.00057003848 101451.66
0.00026097935 -0.05 0.001723339 101521.17
0.00011399538 -0.05 0.0028736441 101567.45
5.2030727e-05 -0.05 0.0040149177 101586.67
0.99675995 -0.05 -0.01414026 100176.47
0.99053141 -0.05 -0.014922081 100059.44
0.984302 -0.05 -0.015696897 100061.05
0.97807172 -0.05 -0.016464736 100040.11
0.97184061 -0.05 -0.017225703 100029.31
0.96560868 -0.05 -0.017979959 100017.16
0.95937593 -0.05 -0.018727485 100007.05
0.95314239 -0.05 -0.019468347 99997.433
0.94690809 -0.05 -0.020202698 99988.536
0.94067302 -0.05 -0.020930625 99980
0.93443721 -0.05 -0.02165213 99972.075
0.92820067 -0.05 -0.022367277 99964.409
0.92196341 -0.05 -0.023076141 99957.19
0.91572545 -0.05 -0.023778757 99950.248
0.90948679 -0.05 -0.024475278 99943.43
0.90324746 -0.05 -0.025165699 99937.009
0.89700747 -0.05 -0.025850054 99930.741
0.89076683 -0.05 -0.02652848 99924.556
0.88452555 -0.05 -0.027200988 99918.546
0.87828362 -0.05 -0.027867522 99912.879
0.87204108 -0.05 -0.028528221 99907.114
0.86579792 -0.05 -0.029183153 99901.581
0.85955416 -0.05 -0.02983229 99896.155
0.85330981 -0.05 -0.030475718 99890.88
0.84706488 -0.05 -0.031113499 99885.578
0.84081938 -0.05 -0.031745622 99880.465
0.83457331 -0.05 -0.032372049 99875.54
0.82832668 -0.05 -0.032992955 99870.409
0.82207949 -0.05 -0.0336083 99865.574
0.81583177 -0.05 -0.03421804 99860.665
0.8095835 -0.05 -0.034822253 99855.906
0.8033347 -0.05 -0.035420949 99851.122
0.79708539 -0.05 -0.036014161 99846.4
0.79083554 -0.05 -0.03660184 99841.776
0.7845852 -0.05 -0.037184077 99837.035
0.77833434 -0.05 -0.037760836 99832.481
0.77208298 -0.05 -0.038332084 99827.882
0.76583112 -0.05 -0.038897883 99823.323
0.75957876 -0.05 -0.03945822 99818.741
0.75332591 -0.05 -0.040013083 99814.245
0.74707259 -0.05 -0.040562444 99809.759
0.74081878 -0.05 -0.041106289 99805.292
0.73456449 -0.05 -0.041644604 99800.813
0.72830973 -0.05 -0.042177352 99796.431
0.7220545 -0.05 -0.042704567 99791.939
0.71579881 -0.05 -0.043226279 99787.361
0.70954264 -0.05 -0.043742313 99782.985
0.70328602 -0.05 -0.04425272 99778.409
0.69702892 -0.05 -0.044757465 99774.029
0.69077138 -0.05 -0.045256457 99769.571
0.68451337 -0.05 -0.045749751 99765.146
0.67825492 -0.05 -0.046237248 99760.742
0.67199602 -0.05 -0.04671896 99756.187
0.66573667 -0.05 -0.04719477 99751.758
0.65947687 -0.05 -0.047664578 99747.278
0.65321661 -0.05 -0.048128468 99742.678
0.64695592 -0.05 -0.048586354 99738.091
0.64069479 -0.05 -0.04903807 99733.599
0.63443321 -0.05 -0.049483583 99729.079
0.62817119 -0.05 -0.049922896 99724.525
0.62190873 -0.05 -0.050355871 99720.045
0.61564583 -0.05 -0.050782423 99715.491
0.60938249 -0.05 -0.051202549 99710.861
0.60311871 -0.05 -0.051616104 99706.278
0.59685451 -0.05 -0.052023018 99701.565
0.59058987 -0.05 -0.052423205 99696.893
0.5843248 -0.05 -0.052816574 99692.133
0.57805928 -0.05 -0.05320301 99687.51
0.57179335 -0.05 -0.05358237 99682.876
0.56552698 -0.05 -0.053954619 99678.181
0.55926019 -0.05 -0.054319635 99673.473
0.55299297 -0.05 -0.054677257 99668.778
0.54672534 -0.05 -0.055027414 99663.909
0.54045729 -0.05 -0.055369943 99659.101
0.5341888 -0.05 -0.055704704 99654.192
0.52791992 -0.05 -0.056031626 99649.278
0.52165061 -0.05 -0.056350538 99644.347
0.5153809 -0.05 -0.056661299 99639.447
0.50911078 -0.05 -0.056963739 99634.573
0.50284025 -0.05 -0.057257722 99629.623
0.49656934 -0.05 -0.057543124 99624.593
0.49029802 -0.05 -0.057819746 99619.527
0.48402632 -0.05 -0.058087386 99614.444
0.47775424 -0.05 -0.05834592 99609.288
0.47148177 -0.05 -0.058595209 99604.059
0.46520894 -0.05 -0.058835003 99598.833
0.45893575 -0.05 -0.059065089 99593.569
0.45266221 -0.05 -0.059285301 99588.275
0.44638832 -0.05 -0.05949546 99582.857
0.44011409 -0.05 -0.059695337 99577.507
0.43383954 -0.05 -0.059884694 99572.152
0.42756468 -0.05 -0.060063318 99566.761
0.4212895 -0.05 -0.060231014 99561.281
0.41501404 -0.05 -0.060387529 99555.788
0.40873831 -0.05 -0.060532589 99550.252
0.40246232 -0.05 -0.060665968 99544.699
0.39618608 -0.05 -0.06078738 99539.136
0.38990963 -0.05 -0.060896517 99533.616
0.38363296 -0.05 -0.060993164 99528.032
0.37735611 -0.05 -0.061077081 99522.445
0.37107911 -0.05 -0.06114787 99516.917
0.36480196 -0.05 -0.06120521 99511.37
0.3585247 -0.05 -0.061248861 99505.804
0.35224736 -0.05 -0.061278485 99500.301
0.34596998 -0.05 -0.061293728 99494.789
0.33969257 -0.05 -0.061294202 99489.347
0.33341518 -0.05 -0.061279579 99483.829
0.32713784 -0.05 -0.061249469 99478.448
0.32086061 -0.05 -0.061203446 99473.124
0.31458352 -0.05 -0.061141123 99467.915
0.3083066 -0.05 -0.061062085 99462.379
0.30202993 -0.05 -0.0609659 99456.378
0.29825291 -0.05 0.059129404 99519.764
0.29261638 -0.05 0.059219306 99513.56
0.28706078 -0.05 0.059293347 99507.146
0.28158498 -0.05 0.059351759 99500.971
0.27618788 -0.05 0.059394826 99494.796
0.27086836 -0.05 0.05942287 99488.881
0.26562537 -0.05 0.059436183 99483.049
0.26045782 -0.05 0.059435031 99477.454
0.25536469 -0.05 0.059419721 99471.856
0.25034492 -0.05 0.059390519 99466.427
0.24539753 -0.05 0.059347629 99461.061
0.2405215 -0.05 0.059291348 99455.979
0.23571583 -0.05 0.059221936 99451.076
0.23097957 -0.05 0.059139675 99446.271
0.22631173 -0.05 0.059044828 99441.47
0.22171139 -0.05 0.058937584 99436.814
0.21717761 -0.05 0.058818224 99432.124
0.21270948 -0.05 0.058686989 99427.715
0.20830607 -0.05 0.058544029 99423.511
0.20396652 -0.05 0.058389626 99419.423
0.19968994 -0.05 0.058224011 99415.49
0.19547546 -0.05 0.058047431 99411.52
0.19132221 -0.05 0.057860106 99407.712
0.18722937 -0.05 0.057662136 99404.241
0.18319611 -0.05 0.05745379 99400.771
0.17922162 -0.05 0.057235275 99397.536
0.17530509 -0.05 0.057006767 99394.24
0.17144572 -0.05 0.056768488 99390.968
0.16764271 -0.05 0.056520617 99387.716
0.16389533 -0.05 0.056263304 99384.828
0.16020281 -0.05 0.055996694 99382.067
0.15656439 -0.05 0.055721026 99379.323
0.15297935 -0.05 0.05543643 99376.746
0.14944697 -0.05 0.05514306 99374.267
0.14596651 -0.05 0.054841079 99372.05
0.14253731 -0.05 0.054530594 99370.107
0.13915863 -0.05 0.054211776 99368.309
0.13582984 -0.05 0.053884754 99366.807
0.13255024 -0.05 0.05354971 99365.282
0.12931917 -0.05 0.053206767 99364.006
0.126136 -0.05 0.052855961 99362.891
0.12300008 -0.05 0.052497489 99361.763
0.11991077 -0.05 0.052131482 99360.814
0.11686747 -0.05 0.051757968 99360.122
0.11386958 -0.05 0.051377031 99359.586
0.1109165 -0.05 0.050988813 99359.189
0.10800765 -0.05 0.050593359 99359.164
0.10514244 -0.05 0.050190769 99359.13
0.10232029 -0.05 0.04978121 99359.184
0.099540669 -0.05 0.049364634 99359.698
0.096803038 -0.05 0.048941103 99360.21
0.094106841 -0.05 0.048510769 99360.855
0.091451575 -0.05 0.048073557 99362.015
0.088836723 -0.05 0.047629539 99363.192
0.086261774 -0.05 0.04717879 99364.757
0.083726234 -0.05 0.046721343 99366.273
0.081229618 -0.05 0.046257248 99368.098
0.078771473 -0.05 0.045786407 99370.359
0.076351345 -0.05 0.045308817 99372.944
0.073968767 -0.05 0.044824559 99375.616
0.071623294 -0.05 0.044333657 99378.545
0.069314519 -0.05 0.043836003 99381.981
0.067042032 -0.05 0.043331563 99385.615
0.064805421 -0.05 0.042820339 99389.598
0.062604307 -0.05 0.042302244 99394.005
0.060438321 -0.05 0.041777197 99398.813
0.058307099 -0.05 0.041245141 99403.994
0.056210296 -0.05 0.040705978 99409.673
0.054147566 -0.05 0.040159678 99415.52
0.052118613 -0.05 0.039606057 99422.333
0.050123144 -0.05 0.039044964 99429.461
0.048160856 -0.05 0.03847634 99437.238
0.046231493 -0.05 0.037900004 99445.472
0.044334817 -0.05 0.037315772 99454.461
0.042470632 -0.05 0.03672337 99464.358
0.040638734 -0.05 0.036122607 99475.034
0.038838927 -0.05 0.035513335 99486.347
0.037071071 -0.05 0.03489527 99498.744
0.035335063 -0.05 0.034268106 99512.082
0.033630823 -0.05 0.033631529 99526.7
0.031958295 -0.05 0.032985225 99542.343
0.030317468 -0.05 0.032328839 99559.487
0.028708395 -0.05 0.031661941 99578.084
0.027131137 -0.05 0.030984147 99598.227
0.02558584 -0.05 0.03029497 99620.285
0.024072706 -0.05 0.029593892 99644.302
0.022591991 -0.05 0.028880398 99670.485
0.021144068 -0.05 0.028153856 99699.268
0.019729339 -0.05 0.027413691 99730.476
0.018348367 -0.05 0.026659168 99765.134
0.017001805 -0.05 0.025889523 99802.919
0.015690394 -0.05 0.025104 99844.714
0.014415068 -0.05 0.02430174 99890.626
0.01317694 -0.05 0.023481869 99941.276
0.011977319 -0.05 0.022643474 99996.547
0.010817739 -0.05 0.021785534 100057.79
0.0096999315 -0.05 0.020906972 100126.16
0.0086259487 -0.05 0.020006899 100201.75
0.0075982651 -0.05 0.019084435 100284.3
0.0066195945 -0.05 0.018138448 100375.28
0.0056929822 -0.05 0.017168158 100473.9
0.0048221572 -0.05 0.016173339 100580.86
0.0040109829 -0.05 0.015153544 100695.5
0.0032635491 -0.05 0.01410888 100816.29
0.0025846173 -0.05 0.013040582 100941.24
0.0019787869 -0.05 0.011950042 101067.37
0.0014504425 -0.05 0.010839682 101190.59
0.0010035818 -0.05 0.0097134675 101305.07
0.00064136301 -0.05 0.008575742 101404.33
0.0003656334 -0.05 0.0074317793 101485.06
0.00017658479 -0.05 0.0062876347 101545.13
7.2829424e-05 -0.05 0.0051493995 101579.39
0.99677643 -0.05 -0.013241059 99947.616
0.99058074 -0.05 -0.012231463 99960.17
0.98438391 -0.05 -0.011228834 99949.385
0.97818597 -0.05 -0.010233146 99954.841
0.97198693 -0.05 -0.009244294 99951.516
0.96578683 -0.05 -0.0082621193 99952.345
0.95958568 -0.05 -0.0072866395 99951.018
0.95338349 -0.05 -0.0063177912 99950.675
0.94718028 -0.05 -0.0053554203 99949.787
0.94097609 -0.05 -0.0043994423 99949.125
0.93477091 -0.05 -0.0034498528 99948.286
0.92856478 -0.05 -0.0025065919 99947.508
0.92235769 -0.05 -0.0015695831 99946.632
0.91614967 -0.05 -0.00063879187 99945.784
0.90994074 -0.05 0.00028593244 99944.864
0.90373091 -0.05 0.0012045873 99943.953
0.8975202 -0.05 0.0021172038 99942.971
0.89130862 -0.05 0.0030239177 99941.991
0.88509618 -0.05 0.0039247425 99940.945
0.87888288 -0.05 0.0048196214 99939.896
0.87266875 -0.05 0.0057086917 99938.781
0.8664538 -0.05 0.006592021 99937.663
0.86023803 -0.05 0.0074695808 99936.494
0.85402145 -0.05 0.0083414573 99935.307
0.8478041 -0.05 0.0092077128 99934.063
0.84158597 -0.05 0.010068334 99932.802
0.83536705 -0.05 0.010923283 99931.486
0.82914738 -0.05 0.011772737 99930.143
0.82292695 -0.05 0.012616655 99928.747
0.81670577 -0.05 0.01345499 99927.317
0.81048385 -0.05 0.014287821 99925.841
0.8042612 -0.05 0.015115158 99924.334
0.79803782 -0.05 0.015937034 99922.767
0.79181372 -0.05 0.016753402 99921.156
0.78558891 -0.05 0.017564349 99919.486
0.7793634 -0.05 0.018369839 99917.77
0.77313716 -0.05 0.019169841 99915.991
0.76691025 -0.05 0.019964417 99914.161
0.76068263 -0.05 0.020753551 99912.275
0.75445433 -0.05 0.021537233 99910.334
0.74822535 -0.05 0.022315436 99908.325
0.74199567 -0.05 0.023088143 99906.253
0.73576532 -0.05 0.023855341 99904.121
0.72953429 -0.05 0.024616994 99901.929
0.72330258 -0.05 0.025373134 99899.662
0.71707021 -0.05 0.026123792 99897.323
0.71083717 -0.05 0.026868794 99894.925
0.70460345 -0.05 0.027608189 99892.425
0.69836908 -0.05 0.028341944 99889.862
0.69213402 -0.05 0.029069964 99887.199
0.6858983 -0.05 0.029792309 99884.455
0.67966193 -0.05 0.030508877 99881.618
0.6734249 -0.05 0.031219679 99878.68
0.66718718 -0.05 0.0319246 99875.66
0.66094881 -0.05 0.032623539 99872.525
0.65470976 -0.05 0.033316582 99869.283
0.64847006 -0.05 0.03400364 99865.937
0.64222969 -0.05 0.03468455 99862.499
0.63598865 -0.05 0.035359276 99858.942
0.62974694 -0.05 0.036027822 99855.27
0.62350456 -0.05 0.036690051 99851.481
0.6172615 -0.05 0.037345877 99847.577
0.61101777 -0.05 0.037995298 99843.521
0.60477337 -0.05 0.038638168 99839.372
0.59852829 -0.05 0.039274417 99835.052
0.59228253 -0.05 0.03990396 99830.636
0.58603607 -0.05 0.040526707 99826.074
0.57978894 -0.05 0.04114254 99821.433
0.57354112 -0.05 0.041751316 99816.635
0.56729262 -0.05 0.042353003 99811.705
0.56104341 -0.05 0.042947477 99806.6
0.55479352 -0.05 0.043534579 99801.42
0.54854293 -0.05 0.044114234 99796.073
0.54229164 -0.05 0.044686282 99790.636
0.53603965 -0.05 0.045250584 99785.009
0.52978695 -0.05 0.045807068 99779.302
0.52353355 -0.05 0.046355561 99773.477
0.51727943 -0.05 0.046895924 99767.534
0.51102461 -0.05 0.047427987 99761.379
0.50476908 -0.05 0.047951613 99755.142
0.49851284 -0.05 0.048466677 99748.778
0.49225588 -0.05 0.048972983 99742.327
0.4859982 -0.05 0.049470327 99735.683
0.4797398 -0.05 0.049958584 99728.96
0.4734807 -0.05 0.050437618 99722.297
0.46722087 -0.05 0.050907176 99715.686
0.46096033 -0.05 0.051367044 99708.853
0.45469908 -0.05 0.05181706 99701.955
0.44843711 -0.05 0.052257042 99694.965
0.44217442 -0.05 0.05268676 99687.951
0.43591102 -0.05 0.053105977 99680.812
0.42964692 -0.05 0.053514482 99673.636
0.42338211 -0.05 0.053912076 99666.443
0.41711661 -0.05 0.054298507 99659.271
0.4108504 -0.05 0.054673501 99651.943
0.40458352 -0.05 0.055036831 99644.56
0.39831595 -0.05 0.055388212 99637.211
0.39204771 -0.05 0.055727333 99629.933
0.38577882 -0.05 0.056053981 99622.526
0.37950926 -0.05 0.056367913 99615.048
0.37323906 -0.05 0.056668732 99607.663
0.36696823 -0.05 0.056956118 99600.326
0.3606968 -0.05 0.057229826 99592.897
0.35442477 -0.05 0.057489522 99585.442
0.34815215 -0.05 0.057734847 99578.017
0.34187898 -0.05 0.057965413 99570.705
0.33560527 -0.05 0.058180891 99563.287
0.32933105 -0.05 0.058380891 99555.918
0.32305635 -0.05 0.058564985 99548.615
0.31678118 -0.05 0.058732786 99541.359
0.31050559 -0.05 0.058883876 99533.812
0.30422962 -0.05 0.059017822 99526.87
