# wallShearStress  FACE_DATA 448
# x y z  wallShearStress_x wallShearStress_y wallShearStress_z
0.29605314 -0.05 -0.060858337 -7.0812313 2.3057136e-17 0.13677303
0.29041712 -0.05 -0.060741577 -6.9120191 -1.1121688e-16 0.15162402
0.28486254 -0.05 -0.060611932 -6.7804655 3.372628e-17 0.16658045
0.27938828 -0.05 -0.060469594 -6.6517239 -2.0773269e-16 0.1811915
0.27399322 -0.05 -0.060314807 -6.5304674 8.4051778e-17 0.19542023
0.26867625 -0.05 -0.060147849 -6.4153952 3.9407138e-17 0.20941762
0.26343628 -0.05 -0.059968976 -6.306515 2.4907288e-16 0.2231394
0.25827225 -0.05 -0.059778413 -6.203673 1.8957739e-17 0.23667143
0.25318311 -0.05 -0.059576429 -6.1072654 -3.9093499e-16 0.24999614
0.24816779 -0.05 -0.059363252 -6.0168656 6.8373761e-17 0.26334115
0.24322529 -0.05 -0.059139048 -5.9312753 -1.7957954e-16 0.27651452
0.2383546 -0.05 -0.058904078 -5.8501676 -1.4245026e-16 0.2895472
0.23355471 -0.05 -0.058658566 -5.7725803 -1.2616052e-16 0.30244321
0.22882463 -0.05 -0.058402757 -5.6978827 2.2829784e-16 0.31528905
0.22416341 -0.05 -0.058136878 -5.6267377 -4.4421782e-17 0.32818671
0.2195701 -0.05 -0.057861085 -5.5587674 -4.0769873e-16 0.34104488
0.21504374 -0.05 -0.057575623 -5.4943024 1.1028713e-16 0.35382893
0.21058341 -0.05 -0.057280701 -5.4334521 1.8332061e-16 0.36677261
0.20618822 -0.05 -0.056976435 -5.375445 -5.7227969e-17 0.37967586
0.20185724 -0.05 -0.056663074 -5.3205215 5.0002726e-16 0.39259071
0.1975896 -0.05 -0.056340815 -5.2686806 -2.9482292e-16 0.40559489
0.19338442 -0.05 -0.056009875 -5.2199422 -7.1585559e-17 0.41865929
0.18924083 -0.05 -0.055670442 -5.1746954 -1.6985167e-16 0.43202859
0.185158 -0.05 -0.055322587 -5.1319491 3.3423392e-17 0.44550438
0.18113509 -0.05 -0.054966545 -5.0918378 -1.6683853e-16 0.45903824
0.17717128 -0.05 -0.054602496 -5.0544763 2.9144486e-16 0.47284923
0.17326575 -0.05 -0.054230584 -5.0192659 -8.1529041e-17 0.48672515
0.1694177 -0.05 -0.053851004 -4.9869001 2.7861127e-16 0.50093062
0.16562635 -0.05 -0.053463903 -4.956998 2.4489539e-16 0.51537922
0.16189091 -0.05 -0.053069406 -4.9294728 -1.5009023e-16 0.53016281
0.15821064 -0.05 -0.05266763 -4.9037733 3.1153728e-16 0.54508203
0.15458477 -0.05 -0.052258784 -4.8804746 -2.3947431e-16 0.56034837
0.15101258 -0.05 -0.051842973 -4.8594756 -1.9629217e-16 0.57602204
0.14749332 -0.05 -0.051420322 -4.8407456 3.9849346e-16 0.59199012
0.14402628 -0.05 -0.050990972 -4.8246656 1.4388484e-16 0.60852116
0.14061074 -0.05 -0.050555 -4.8104007 3.3420717e-16 0.62540897
0.13724604 -0.05 -0.050112555 -4.7977399 3.522631e-16 0.64264128
0.13393146 -0.05 -0.049663738 -4.7864288 2.66721e-16 0.66019733
0.13066635 -0.05 -0.049208709 -4.7768171 -1.0393981e-16 0.6781575
0.12745002 -0.05 -0.048747564 -4.7690352 -7.3267973e-17 0.69679334
0.12428185 -0.05 -0.048280318 -4.7621298 4.9705967e-16 0.71569861
0.12116118 -0.05 -0.047807142 -4.7570717 6.0558678e-17 0.73508872
0.11808736 -0.05 -0.047328146 -4.7545342 1.4580068e-16 0.75545346
0.11505979 -0.05 -0.046843333 -4.7535525 -4.3245741e-16 0.77645184
0.11207789 -0.05 -0.046352768 -4.7539868 -2.5747601e-16 0.79796559
0.10914102 -0.05 -0.045856569 -4.7560061 -3.7411889e-17 0.82010904
0.10624861 -0.05 -0.045354758 -4.7594725 -2.2498948e-16 0.84288341
0.10340008 -0.05 -0.044847417 -4.7640339 1.2274707e-16 0.86609985
0.10059484 -0.05 -0.04433469 -4.7712299 -4.662844e-18 0.89052645
0.097832362 -0.05 -0.043816509 -4.7805 2.5512969e-16 0.91595201
0.095112092 -0.05 -0.043292917 -4.7918429 -3.2804306e-16 0.94223698
0.09243348 -0.05 -0.042764046 -4.8059867 -1.5108432e-17 0.96996603
0.089796025 -0.05 -0.042229802 -4.8209265 1.081365e-16 0.99854394
0.087199204 -0.05 -0.041690237 -4.8357615 7.5628916e-17 1.0277131
0.084642507 -0.05 -0.041145408 -4.8519363 -4.0094586e-16 1.058055
0.082125439 -0.05 -0.040595331 -4.8692305 -3.7811816e-16 1.0895049
0.079647511 -0.05 -0.040040037 -4.8895107 -7.3499655e-17 1.1229306
0.077208277 -0.05 -0.03947941 -4.910459 -3.9190806e-17 1.1573838
0.074807281 -0.05 -0.038913434 -4.9308542 -7.0215059e-17 1.1924063
0.072444053 -0.05 -0.03834217 -4.9505804 1.4015789e-16 1.2282648
0.07011815 -0.05 -0.037765626 -4.9704955 -1.112361e-16 1.2654439
0.067829168 -0.05 -0.037183681 -4.9903306 -1.1140843e-17 1.3037464
0.065576697 -0.05 -0.036596285 -5.0111257 2.0248873e-16 1.3436878
0.063360328 -0.05 -0.036003424 -5.0347678 -1.2103182e-16 1.3862224
0.061179684 -0.05 -0.035404996 -5.0602164 -1.1761412e-16 1.4308399
0.059034399 -0.05 -0.03480091 -5.0859455 -1.1311066e-16 1.4770105
0.05692411 -0.05 -0.034191093 -5.1112179 5.311477e-17 1.5244345
0.05484848 -0.05 -0.033575436 -5.1357972 3.800122e-16 1.5731321
0.052807159 -0.05 -0.032953896 -5.16091 2.7301454e-16 1.624333
0.050799862 -0.05 -0.032326277 -5.1869341 1.5275771e-16 1.6782894
0.048826301 -0.05 -0.031692419 -5.2111542 3.8005691e-16 1.7337853
0.046886175 -0.05 -0.031052251 -5.2349864 3.3696457e-16 1.7916849
0.044979233 -0.05 -0.030405583 -5.2568266 4.5382954e-16 1.8514321
0.043105246 -0.05 -0.029752223 -5.2783934 -3.7161734e-17 1.9141728
0.041264027 -0.05 -0.029091889 -5.2997998 7.9671346e-18 1.9803532
0.039455381 -0.05 -0.028424383 -5.3231507 -3.5533614e-16 2.0507993
0.037679115 -0.05 -0.027749551 -5.3477569 3.9529705e-16 2.1253919
0.035935102 -0.05 -0.027067102 -5.3708938 -6.4095665e-16 2.2031073
0.034223249 -0.05 -0.026376727 -5.3900233 -5.8571599e-17 2.2824746
0.032543487 -0.05 -0.025678111 -5.403419 -6.7492368e-16 2.3637941
0.030895773 -0.05 -0.024970935 -5.4109735 6.5868738e-16 2.4499108
0.029280109 -0.05 -0.024254848 -5.4173634 2.0580142e-16 2.5425507
0.02769656 -0.05 -0.023529418 -5.4141551 4.2814971e-16 2.6349403
0.026145206 -0.05 -0.022794267 -5.3952085 6.6434809e-17 2.7248318
0.024626208 -0.05 -0.022048912 -5.3687737 8.6144081e-17 2.8155607
0.023139789 -0.05 -0.021292841 -5.3426371 -5.6713732e-16 2.912059
0.021686221 -0.05 -0.020525553 -5.3204394 1.0486526e-15 3.0156323
0.020265903 -0.05 -0.019746428 -5.2778971 -8.7468274e-16 3.1118445
0.018879253 -0.05 -0.018954904 -5.1837172 5.5951544e-16 3.1889114
0.017526866 -0.05 -0.01815027 -5.0272268 -4.3702354e-16 3.2447472
0.01620942 -0.05 -0.017331784 -4.81499 -3.8064353e-16 3.2855753
0.014927683 -0.05 -0.01649872 -4.5828574 3.159339e-17 3.342986
0.01368262 -0.05 -0.015650254 -4.3734568 -2.39417e-16 3.4536087
0.012475376 -0.05 -0.014785552 -4.2146622 4.9804692e-16 3.6456096
0.011307291 -0.05 -0.013903749 -4.0740742 8.1361964e-16 3.916455
0.010179937 -0.05 -0.013003882 -3.9652424 -1.42837e-15 4.2716566
0.009095084 -0.05 -0.012084939 -3.9116827 4.7556784e-17 4.6742309
0.008054814 -0.05 -0.011146104 -3.969805 -9.0104677e-16 5.1482587
0.0070616331 -0.05 -0.010186591 -4.0306467 -3.4486353e-16 5.6101763
0.0061182946 -0.05 -0.0092053682 -4.0078841 -3.8768997e-16 5.968545
0.00522787 -0.05 -0.008201767 -3.8632561 7.3748779e-17 6.2043816
0.0043940945 -0.05 -0.0071756959 -3.5996237 2.0280417e-16 6.3043878
0.0036208449 -0.05 -0.0061268534 -3.2195371 3.1163015e-16 6.2260416
0.0029122046 -0.05 -0.0050554949 -2.7583725 7.8400004e-17 5.9600756
0.0022728864 -0.05 -0.0039630294 -2.2512641 4.0059282e-17 5.5325048
0.0017074359 -0.05 -0.0028510168 -1.7378902 1.8213744e-16 4.936273
0.0012201458 -0.05 -0.0017220366 -1.247195 4.1152987e-16 4.182026
0.00081486582 -0.05 -0.00058019912 -0.81960315 1.7230699e-16 3.3184005
0.00049459276 -0.05 0.00057003848 -0.50592957 1.45089e-16 2.3764447
0.00026097935 -0.05 0.001723339 -0.30578499 -6.5324471e-17 1.3936053
0.00011399538 -0.05 0.0028736441 -0.18676612 -5.4337406e-17 0.69928536
5.2030727e-05 -0.05 0.0040149177 -0.15791463 2.5714506e-18 0.089152494
0.99675995 -0.05 -0.01414026 -56.174748 3.3042994e-16 -6.8871835
0.99053141 -0.05 -0.014922081 -56.099851 -1.2336396e-15 -7.0410748
0.984302 -0.05 -0.015696897 -57.115874 -2.3344381e-16 -7.0299891
0.97807172 -0.05 -0.016464736 -56.397829 2.0310313e-15 -6.9021769
0.97184061 -0.05 -0.017225703 -56.022614 2.0307859e-15 -6.7928029
0.96560868 -0.05 -0.017979959 -55.535275 -1.344814e-15 -6.6744928
0.95937593 -0.05 -0.018727485 -55.065296 1.634967e-15 -6.5579247
0.95314239 -0.05 -0.019468347 -54.579433 6.1766277e-16 -6.4424899
0.94690809 -0.05 -0.020202698 -54.088266 5.5328305e-16 -6.3278827
0.94067302 -0.05 -0.020930625 -53.591994 1.3430988e-15 -6.2144705
0.93443721 -0.05 -0.02165213 -53.09034 -2.5820165e-16 -6.1013417
0.92820067 -0.05 -0.022367277 -52.584187 -4.6338232e-16 -5.9900008
0.92196341 -0.05 -0.023076141 -52.071852 4.8442718e-16 -5.8790346
0.91572545 -0.05 -0.023778757 -51.554396 -6.0340226e-16 -5.7696483
0.90948679 -0.05 -0.024475278 -51.032063 -9.7610088e-18 -5.6612133
0.90324746 -0.05 -0.025165699 -50.50526 1.6081017e-15 -5.5532481
0.89700747 -0.05 -0.025850054 -49.97436 -2.19418e-16 -5.4467874
0.89076683 -0.05 -0.02652848 -49.443247 -6.6976942e-16 -5.3416702
0.88452555 -0.05 -0.027200988 -48.912267 7.0830487e-16 -5.2373876
0.87828362 -0.05 -0.027867522 -48.382056 9.047052e-16 -5.1345653
0.87204108 -0.05 -0.028528221 -47.853304 -1.4703086e-15 -5.0340207
0.86579792 -0.05 -0.029183153 -47.326665 9.8277308e-16 -4.9343207
0.85955416 -0.05 -0.02983229 -46.800695 1.5480875e-15 -4.8363107
0.85330981 -0.05 -0.030475718 -46.275085 -4.2080471e-16 -4.7396992
0.84706488 -0.05 -0.031113499 -45.747729 1.2596621e-15 -4.6441893
0.84081938 -0.05 -0.031745622 -45.218425 9.6997318e-16 -4.549291
0.83457331 -0.05 -0.032372049 -44.6848 -7.1725412e-16 -4.4554442
0.82832668 -0.05 -0.032992955 -44.148612 -2.5633778e-16 -4.3630088
0.82207949 -0.05 -0.0336083 -43.608756 1.6399662e-15 -4.2701674
0.81583177 -0.05 -0.03421804 -43.068043 8.8550036e-16 -4.1790413
0.8095835 -0.05 -0.034822253 -42.528773 -4.6466764e-17 -4.0886724
0.8033347 -0.05 -0.035420949 -41.993942 -2.8743609e-16 -4.0000625
0.79708539 -0.05 -0.036014161 -41.464206 -1.5103772e-16 -3.9126177
0.79083554 -0.05 -0.03660184 -40.940397 8.7401659e-17 -3.8268549
0.7845852 -0.05 -0.037184077 -40.422573 -9.6000156e-16 -3.7428429
0.77833434 -0.05 -0.037760836 -39.910062 3.7676933e-16 -3.6597528
0.77208298 -0.05 -0.038332084 -39.4008 9.7693895e-16 -3.5784437
0.76583112 -0.05 -0.038897883 -38.892268 -1.0839705e-17 -3.4981487
0.75957876 -0.05 -0.03945822 -38.380297 -2.5976814e-16 -3.4185041
0.75332591 -0.05 -0.040013083 -37.863998 -2.4718487e-16 -3.3391578
0.74707259 -0.05 -0.040562444 -37.342255 4.5624561e-17 -3.2601206
0.74081878 -0.05 -0.041106289 -36.819524 7.8939674e-16 -3.1816784
0.73456449 -0.05 -0.041644604 -36.299684 -8.4994615e-16 -3.1041723
0.72830973 -0.05 -0.042177352 -35.786628 -9.612455e-16 -3.0280054
0.7220545 -0.05 -0.042704567 -35.281674 -1.3422652e-16 -2.9535881
0.71579881 -0.05 -0.043226279 -34.785488 7.8109723e-16 -2.8803799
0.70954264 -0.05 -0.043742313 -34.295276 2.3225049e-16 -2.8081612
0.70328602 -0.05 -0.04425272 -33.809459 2.3088215e-16 -2.7378887
0.69702892 -0.05 -0.044757465 -33.321665 -2.7476576e-16 -2.6675825
0.69077138 -0.05 -0.045256457 -32.827712 4.0374982e-16 -2.5982314
0.68451337 -0.05 -0.045749751 -32.32528 9.3572424e-16 -2.5285902
0.67825492 -0.05 -0.046237248 -31.817507 1.0053572e-16 -2.4590459
0.67199602 -0.05 -0.04671896 -31.312284 -9.0440013e-16 -2.390215
0.66573667 -0.05 -0.04719477 -30.816092 5.711564e-17 -2.3221952
0.65947687 -0.05 -0.047664578 -30.331062 1.7056113e-16 -2.2560991
0.65321661 -0.05 -0.048128468 -29.857027 1.9483646e-16 -2.1916652
0.64695592 -0.05 -0.048586354 -29.390385 1.2415298e-17 -2.1282009
0.64069479 -0.05 -0.04903807 -28.925806 4.6527484e-16 -2.0658013
0.63443321 -0.05 -0.049483583 -28.45508 -9.5804154e-16 -2.0040556
0.62817119 -0.05 -0.049922896 -27.972502 -5.1886226e-17 -1.942158
0.62190873 -0.05 -0.050355871 -27.475982 -9.5997146e-16 -1.8794823
0.61564583 -0.05 -0.050782423 -26.975818 -4.7067383e-16 -1.8171178
0.60938249 -0.05 -0.051202549 -26.484499 -5.5174228e-16 -1.755694
0.60311871 -0.05 -0.051616104 -26.005367 1.9330816e-16 -1.6956222
0.59685451 -0.05 -0.052023018 -25.535973 2.5707117e-16 -1.6371613
0.59058987 -0.05 -0.052423205 -25.075412 -6.3421555e-16 -1.579945
0.5843248 -0.05 -0.052816574 -24.617729 -6.3914411e-17 -1.5240576
0.57805928 -0.05 -0.05320301 -24.153411 1.7915899e-16 -1.4685993
0.57179335 -0.05 -0.05358237 -23.669985 -2.3067395e-16 -1.4131369
0.56552698 -0.05 -0.053954619 -23.163333 -1.8602648e-16 -1.3568968
0.55926019 -0.05 -0.054319635 -22.642596 3.4851761e-16 -1.2999355
0.55299297 -0.05 -0.054677257 -22.12747 3.3000876e-16 -1.2437097
0.54672534 -0.05 -0.055027414 -21.62418 2.6101979e-16 -1.1889764
0.54045729 -0.05 -0.055369943 -21.133043 1.9880829e-16 -1.1356276
0.5341888 -0.05 -0.055704704 -20.654025 8.9237536e-17 -1.0845646
0.52791992 -0.05 -0.056031626 -20.184396 5.8653044e-16 -1.0349767
0.52165061 -0.05 -0.056350538 -19.71512 -3.0357692e-16 -0.98656686
0.5153809 -0.05 -0.056661299 -19.231393 8.344321e-16 -0.93861689
0.50911078 -0.05 -0.056963739 -18.718051 -3.6171048e-16 -0.88983862
0.50284025 -0.05 -0.057257722 -18.190769 1.5718136e-16 -0.84062954
0.49656934 -0.05 -0.057543124 -17.674204 1.421867e-16 -0.79186352
0.49029802 -0.05 -0.057819746 -17.167447 -8.2294948e-17 -0.7443599
0.48402632 -0.05 -0.058087386 -16.672715 2.2252755e-17 -0.69832265
0.47775424 -0.05 -0.05834592 -16.187402 2.3956139e-16 -0.65389221
0.47148177 -0.05 -0.058595209 -15.710327 -2.7498897e-16 -0.61079108
0.46520894 -0.05 -0.058835003 -15.241373 -9.7609252e-17 -0.5689973
0.45893575 -0.05 -0.059065089 -14.77961 3.280516e-16 -0.52859213
0.45266221 -0.05 -0.059285301 -14.324644 2.5461182e-16 -0.48952072
0.44638832 -0.05 -0.05949546 -13.875559 -4.5485797e-16 -0.45171394
0.44011409 -0.05 -0.059695337 -13.433556 2.029779e-17 -0.41511266
0.43383954 -0.05 -0.059884694 -13.001284 2.0478606e-16 -0.3798422
0.42756468 -0.05 -0.060063318 -12.582724 1.1366188e-16 -0.34596338
0.4212895 -0.05 -0.060231014 -12.180043 -7.5130161e-18 -0.31350796
0.41501404 -0.05 -0.060387529 -11.794521 3.2372495e-17 -0.28239433
0.40873831 -0.05 -0.060532589 -11.424539 4.9714064e-17 -0.25260242
0.40246232 -0.05 -0.060665968 -11.071542 -6.8540258e-17 -0.223985
0.39618608 -0.05 -0.06078738 -10.738143 8.7966991e-17 -0.19649875
0.38990963 -0.05 -0.060896517 -10.424941 1.8262191e-16 -0.1703413
0.38363296 -0.05 -0.060993164 -10.128763 1.0159428e-17 -0.14548873
0.37735611 -0.05 -0.061077081 -9.8466159 2.0403634e-16 -0.12162079
0.37107911 -0.05 -0.06114787 -9.5759915 3.4202521e-17 -0.098524363
0.36480196 -0.05 -0.06120521 -9.3163786 2.5898367e-17 -0.076478898
0.3585247 -0.05 -0.061248861 -9.0671683 4.8376515e-18 -0.054377809
0.35224736 -0.05 -0.061278485 -8.8276439 -5.8016765e-17 -0.03123203
0.34596998 -0.05 -0.061293728 -8.597141 -1.1757252e-18 -0.010435388
0.33969257 -0.05 -0.061294202 -8.3754901 6.7741075e-19 0.010271149
0.33341518 -0.05 -0.061279579 -8.1622865 1.1438997e-17 0.030783337
0.32713784 -0.05 -0.061249469 -7.957386 5.8595591e-17 0.049836987
0.32086061 -0.05 -0.061203446 -7.7595202 -1.5106005e-17 0.067797796
0.31458352 -0.05 -0.061141123 -7.5691216 6.9956681e-18 0.085698253
0.3083066 -0.05 -0.061062085 -7.3884943 3.891708e-17 0.10324528
0.30202993 -0.05 -0.0609659 -7.2441999 -8.1102046e-17 0.12027798
0.29825291 -0.05 0.059129404 -6.8021548 1.326078e-16 0.1008216
0.29261638 -0.05 0.059219306 -7.1008245 2.4421805e-17 0.087071414
0.28706078 -0.05 0.059293347 -7.3673043 4.3860263e-17 0.071952069
0.28158498 -0.05 0.059351759 -7.6345935 4.222044e-17 0.055337904
0.27618788 -0.05 0.059394826 -7.9032948 -2.0034272e-17 0.034690932
0.27086836 -0.05 0.05942287 -8.1737062 -1.4527363e-17 0.013094592
0.26562537 -0.05 0.059436183 -8.4444749 7.284055e-20 -0.010351428
0.26045782 -0.05 0.059435031 -8.7146287 -6.9366288e-18 -0.036067352
0.25536469 -0.05 0.059419721 -8.9849158 4.6257178e-18 -0.062630366
0.25034492 -0.05 0.059390519 -9.2563288 -6.9191284e-18 -0.089761234
0.24539753 -0.05 0.059347629 -9.5272901 -9.548692e-18 -0.11894012
0.2405215 -0.05 0.059291348 -9.7971589 -5.8885199e-17 -0.14995427
0.23571583 -0.05 0.059221936 -10.064625 1.1201775e-16 -0.18327717
0.23097957 -0.05 0.059139675 -10.327919 -8.2811988e-17 -0.21828025
0.22631173 -0.05 0.059044828 -10.587048 -5.1700872e-17 -0.25516397
0.22171139 -0.05 0.058937584 -10.840911 -3.4828206e-17 -0.29395166
0.21717761 -0.05 0.058818224 -11.088352 1.1034285e-16 -0.33429931
0.21270948 -0.05 0.058686989 -11.328311 -2.711198e-16 -0.37665381
0.20830607 -0.05 0.058544029 -11.561905 1.8030976e-16 -0.42071314
0.20396652 -0.05 0.058389626 -11.791403 -4.4153079e-17 -0.46646521
0.19968994 -0.05 0.058224011 -12.021286 -1.3341321e-17 -0.51404095
0.19547546 -0.05 0.058047431 -12.255532 -3.6840842e-16 -0.56316031
0.19132221 -0.05 0.057860106 -12.48992 -7.5188954e-17 -0.61398749
0.18722937 -0.05 0.057662136 -12.717632 2.7921527e-16 -0.66613128
0.18319611 -0.05 0.05745379 -12.931033 -5.5422306e-17 -0.71932441
0.17922162 -0.05 0.057235275 -13.124497 -2.9637838e-18 -0.77458549
0.17530509 -0.05 0.057006767 -13.29473 -1.7923713e-16 -0.83222087
0.17144572 -0.05 0.056768488 -13.455239 1.4906969e-16 -0.89352383
0.16764271 -0.05 0.056520617 -13.6223 5.1711815e-17 -0.95881461
0.16389533 -0.05 0.056263304 -13.809303 -1.1111151e-16 -1.0283876
0.16020281 -0.05 0.055996694 -14.012531 4.6936492e-16 -1.1011093
0.15656439 -0.05 0.055721026 -14.228672 -6.5659495e-18 -1.1773071
0.15297935 -0.05 0.05543643 -14.455912 -4.2425023e-16 -1.2571344
0.14944697 -0.05 0.05514306 -14.696543 -4.4498076e-16 -1.3403486
0.14596651 -0.05 0.054841079 -14.957357 4.470954e-16 -1.4275894
0.14253731 -0.05 0.054530594 -15.242176 1.4446747e-16 -1.5190534
0.13915863 -0.05 0.054211776 -15.548381 7.9649878e-17 -1.6152447
0.13582984 -0.05 0.053884754 -15.86806 3.8931957e-16 -1.7161525
0.13255024 -0.05 0.05354971 -16.193526 3.4177486e-16 -1.8211633
0.12931917 -0.05 0.053206767 -16.519656 -9.3086065e-16 -1.9305431
0.126136 -0.05 0.052855961 -16.841531 -4.5080582e-16 -2.0432829
0.12300008 -0.05 0.052497489 -17.158179 -1.1877799e-16 -2.159384
0.11991077 -0.05 0.052131482 -17.468199 1.8660032e-16 -2.2792707
0.11686747 -0.05 0.051757968 -17.769116 6.6169471e-16 -2.4023759
0.11386958 -0.05 0.051377031 -18.060115 1.6275009e-16 -2.5284517
0.1109165 -0.05 0.050988813 -18.341252 5.7043102e-18 -2.657837
0.10800765 -0.05 0.050593359 -18.611187 -1.2832803e-16 -2.7910615
0.10514244 -0.05 0.050190769 -18.870086 3.7047635e-16 -2.9268303
0.10232029 -0.05 0.04978121 -19.11873 4.6833949e-16 -3.0661885
0.099540669 -0.05 0.049364634 -19.354863 -1.1179692e-16 -3.2085911
0.096803038 -0.05 0.048941103 -19.578421 6.2524569e-16 -3.3534358
0.094106841 -0.05 0.048510769 -19.790619 -7.9493461e-16 -3.5019333
0.091451575 -0.05 0.048073557 -19.990209 7.0322667e-19 -3.6533793
0.088836723 -0.05 0.047629539 -20.177894 -2.148819e-16 -3.8072858
0.086261774 -0.05 0.04717879 -20.353926 2.7643198e-16 -3.9643702
0.083726234 -0.05 0.046721343 -20.51861 1.0078995e-16 -4.1244125
0.081229618 -0.05 0.046257248 -20.671772 5.4142427e-16 -4.2882945
0.078771473 -0.05 0.045786407 -20.811441 -5.440609e-16 -4.4549804
0.076351345 -0.05 0.045308817 -20.937585 4.9795773e-16 -4.6239877
0.073968767 -0.05 0.044824559 -21.051692 9.944264e-16 -4.7960461
0.071623294 -0.05 0.044333657 -21.153424 4.0559868e-16 -4.9718599
0.069314519 -0.05 0.043836003 -21.241007 -7.1263359e-16 -5.1506004
0.067042032 -0.05 0.043331563 -21.314686 -6.1184204e-16 -5.3320992
0.064805421 -0.05 0.042820339 -21.374972 8.5960389e-17 -5.5170774
0.062604307 -0.05 0.042302244 -21.420538 5.9392215e-16 -5.7050486
0.060438321 -0.05 0.041777197 -21.451181 2.4573499e-16 -5.8958004
0.058307099 -0.05 0.041245141 -21.466777 -2.9407378e-16 -6.0894581
0.056210296 -0.05 0.040705978 -21.467194 -1.73213e-16 -6.2857912
0.054147566 -0.05 0.040159678 -21.452967 5.5570921e-16 -6.4856414
0.052118613 -0.05 0.039606057 -21.422333 -7.769412e-16 -6.6885334
0.050123144 -0.05 0.039044964 -21.374725 -5.431844e-16 -6.8938022
0.048160856 -0.05 0.03847634 -21.309557 8.3280214e-17 -7.1022161
0.046231493 -0.05 0.037900004 -21.226189 -5.1553168e-16 -7.3136906
0.044334817 -0.05 0.037315772 -21.123369 -1.2107177e-16 -7.5281647
0.042470632 -0.05 0.03672337 -20.999053 -4.6855619e-16 -7.7442624
0.040638734 -0.05 0.036122607 -20.854129 7.8729812e-16 -7.9621044
0.038838927 -0.05 0.035513335 -20.688379 2.1795507e-17 -8.182427
0.037071071 -0.05 0.03489527 -20.500352 6.2795571e-16 -8.404748
0.035335063 -0.05 0.034268106 -20.288564 3.7869332e-16 -8.6281716
0.033630823 -0.05 0.033631529 -20.052243 6.999713e-16 -8.8521434
0.031958295 -0.05 0.032985225 -19.790676 8.5581674e-16 -9.0764433
0.030317468 -0.05 0.032328839 -19.502803 -4.0959086e-16 -9.3005474
0.028708395 -0.05 0.031661941 -19.18675 -1.9635816e-16 -9.5227106
0.027131137 -0.05 0.030984147 -18.842663 2.7547016e-16 -9.7432935
0.02558584 -0.05 0.03029497 -18.467912 -5.8456293e-16 -9.9598803
0.024072706 -0.05 0.029593892 -18.062028 -9.8271035e-16 -10.171562
0.022591991 -0.05 0.028880398 -17.623012 7.6017262e-16 -10.376557
0.021144068 -0.05 0.028153856 -17.149519 5.4931044e-16 -10.572254
0.019729339 -0.05 0.027413691 -16.640907 -1.180751e-15 -10.757849
0.018348367 -0.05 0.026659168 -16.094033 -3.8631155e-16 -10.928128
0.017001805 -0.05 0.025889523 -15.508146 1.3626745e-17 -11.080826
0.015690394 -0.05 0.025104 -14.88207 -4.8116091e-16 -11.21168
0.014415068 -0.05 0.02430174 -14.214291 -6.4397004e-16 -11.315903
0.01317694 -0.05 0.023481869 -13.503789 -2.0671662e-17 -11.386984
0.011977319 -0.05 0.022643474 -12.750062 -9.0510122e-16 -11.421373
0.010817739 -0.05 0.021785534 -11.953706 2.4225491e-17 -11.413915
0.0096999315 -0.05 0.020906972 -11.112584 -1.1122048e-15 -11.347769
0.0086259487 -0.05 0.020006899 -10.228628 -4.9182941e-16 -11.214882
0.0075982651 -0.05 0.019084435 -9.307564 -1.6393144e-17 -11.010753
0.0066195945 -0.05 0.018138448 -8.3565939 1.3771428e-16 -10.72032
0.0056929822 -0.05 0.017168158 -7.379796 -8.3663692e-17 -10.33783
0.0048221572 -0.05 0.016173339 -6.3882438 -4.0708293e-16 -9.8442931
0.0040109829 -0.05 0.015153544 -5.4004679 -6.8376231e-18 -9.2229259
0.0032635491 -0.05 0.01410888 -4.4350271 1.2279674e-16 -8.4745336
0.0025846173 -0.05 0.013040582 -3.5158197 2.4261338e-16 -7.6040916
0.0019787869 -0.05 0.011950042 -2.666346 -1.1215043e-16 -6.619233
0.0014504425 -0.05 0.010839682 -1.9084705 -5.5703722e-16 -5.5422222
0.0010035818 -0.05 0.0097134675 -1.2686762 9.7163201e-17 -4.4048403
0.00064136301 -0.05 0.008575742 -0.77220249 -2.0266791e-16 -3.2559497
0.0003656334 -0.05 0.0074317793 -0.44769489 -1.0750138e-16 -2.1393741
0.00017658479 -0.05 0.0062876347 -0.26354174 9.1280988e-17 -1.1857279
7.2829424e-05 -0.05 0.0051493995 -0.17323548 -2.8120796e-17 -0.49759136
0.99677643 -0.05 -0.013241059 0.058377897 1.5552795e-16 0.21983119
0.99058074 -0.05 -0.012231463 0.00042428251 3.0963506e-16 -0.00028297605
0.98438391 -0.05 -0.011228834 0.0052387237 -9.1636398e-16 -0.00077638724
0.97818597 -0.05 -0.010233146 -0.0021144438 -2.1648858e-16 0.0002478625
0.97198693 -0.05 -0.009244294 0.0025003067 8.9190396e-18 -0.00021491448
0.96578683 -0.05 -0.0082621193 0.00051168615 3.9902646e-16 -1.8179949e-07
0.95958568 -0.05 -0.0072866395 0.0017051233 -4.2915518e-17 -0.0001806612
0.95338349 -0.05 -0.0063177912 0.0012725379 -2.834088e-16 -9.8507035e-05
0.94718028 -0.05 -0.0053554203 0.0016135592 1.2507244e-16 -0.0001595226
0.94097609 -0.05 -0.0043994423 0.0015828176 8.2232582e-16 -0.00013682771
0.93477091 -0.05 -0.0034498528 0.0017271379 4.990334e-16 -0.00016372112
0.92856478 -0.05 -0.0025065919 0.0017883006 -4.2948187e-16 -0.00015582138
0.92235769 -0.05 -0.0015695831 0.0018859226 -2.5212136e-16 -0.00017261411
0.91614967 -0.05 -0.00063879187 0.0019511627 5.4182217e-16 -0.00016971356
0.90994074 -0.05 0.00028593244 0.002042752 -2.1176644e-16 -0.00018926898
0.90373091 -0.05 0.0012045873 0.0021281778 -5.9550581e-16 -0.00018283293
0.8975202 -0.05 0.0021172038 0.0022586464 7.9106075e-17 -0.00019962601
0.89130862 -0.05 0.0030239177 0.0023196997 -3.9399089e-16 -0.00020191413
0.88509618 -0.05 0.0039247425 0.0024238851 2.1245526e-16 -0.000217017
0.87888288 -0.05 0.0048196214 0.0025078706 1.1036211e-16 -0.00021901378
0.87266875 -0.05 0.0057086917 0.0026230175 7.6592325e-16 -0.00023519643
0.8664538 -0.05 0.006592021 0.0027171962 4.4168046e-16 -0.0002392783
0.86023803 -0.05 0.0074695808 0.0028326009 -3.9341429e-16 -0.00025586286
0.85402145 -0.05 0.0083414573 0.0029527296 3.3757135e-16 -0.00026911916
0.8478041 -0.05 0.0092077128 0.0031307443 3.5656667e-17 -0.00027992105
0.84158597 -0.05 0.010068334 0.0032315935 3.6069863e-16 -0.00027415138
0.83536705 -0.05 0.010923283 0.0033886355 -2.415401e-16 -0.00029265041
0.82914738 -0.05 0.011772737 0.0035140899 -2.6050975e-16 -0.00029681584
0.82292695 -0.05 0.012616655 0.0036646536 -5.2766085e-16 -0.00030645298
0.81670577 -0.05 0.01345499 0.0037959999 2.8495272e-16 -0.00031458551
0.81048385 -0.05 0.014287821 0.0040185678 4.5717523e-16 -0.00031466858
0.8042612 -0.05 0.015115158 0.0043705641 -2.8709334e-16 -0.00031208976
0.79803782 -0.05 0.015937034 0.0047933783 -1.4630008e-16 -0.00027960688
0.79181372 -0.05 0.016753402 0.0068941608 -1.0652713e-16 -0.00037191935
0.78558891 -0.05 0.017564349 0.0080188394 -1.5152383e-16 -0.00066805508
0.7793634 -0.05 0.018369839 0.0078795268 -3.856091e-16 -0.0007108878
0.77313716 -0.05 0.019169841 0.0082017224 2.8416535e-16 -0.00073249606
0.76691025 -0.05 0.019964417 0.0076901455 6.0546193e-17 -0.00063899672
0.76068263 -0.05 0.020753551 0.0078819768 1.2261752e-15 -0.00065034637
0.75445433 -0.05 0.021537233 0.0076476214 -8.5776945e-16 -0.00061938122
0.74822535 -0.05 0.022315436 0.0072138468 6.1166453e-16 -0.00055261859
0.74199567 -0.05 0.023088143 0.0065194469 -8.760105e-18 -0.00045613284
0.73576532 -0.05 0.023855341 0.0054871619 -3.272388e-16 -0.00030694698
0.72953429 -0.05 0.024616994 0.0039906603 -7.8942784e-16 -0.00010556923
0.72330258 -0.05 0.025373134 0.0020077746 -7.2726569e-16 0.00014171225
0.71707021 -0.05 0.026123792 -0.00056503575 5.3607484e-16 0.00043825162
0.71083717 -0.05 0.026868794 -0.0035610246 1.2275308e-16 0.00073825582
0.70460345 -0.05 0.027608189 -0.0061790683 -8.2032039e-16 0.0010617948
0.69836908 -0.05 0.028341944 -0.0093408349 4.2033979e-16 0.0014354879
0.69213402 -0.05 0.029069964 -0.013039747 3.6367628e-16 0.0018615274
0.6858983 -0.05 0.029792309 -0.017399151 -3.0554145e-16 0.0023553609
0.67966193 -0.05 0.030508877 -0.022400958 -4.5774343e-16 0.0029116953
0.6734249 -0.05 0.031219679 -0.028164896 -2.8942666e-16 0.0035393697
0.66718718 -0.05 0.0319246 -0.03469854 -5.74239e-16 0.0042394803
0.66094881 -0.05 0.032623539 -0.042099317 -5.2652178e-16 0.0050160683
0.65470976 -0.05 0.033316582 -0.050637609 -5.3702055e-17 0.0058878527
0.64847006 -0.05 0.03400364 -0.060546941 -1.0322327e-15 0.0068790331
0.64222969 -0.05 0.03468455 -0.071845322 4.7915682e-16 0.0079929309
0.63598865 -0.05 0.035359276 -0.084594338 5.5579526e-16 0.0092375382
0.62974694 -0.05 0.036027822 -0.09886122 1.321946e-16 0.010605539
0.62350456 -0.05 0.036690051 -0.11473693 -1.1210152e-16 0.012107591
0.6172615 -0.05 0.037345877 -0.13218231 2.1989738e-17 0.013735971
0.61101777 -0.05 0.037995298 -0.1514277 3.0039099e-16 0.015511655
0.60477337 -0.05 0.038638168 -0.1723448 1.7468362e-16 0.01740367
0.59852829 -0.05 0.039274417 -0.19514489 -5.4203251e-17 0.019424442
0.59228253 -0.05 0.03990396 -0.22020054 2.6892756e-16 0.021687512
0.58603607 -0.05 0.040526707 -0.24936168 7.8869875e-16 0.024155663
0.57978894 -0.05 0.04114254 -0.28086274 6.722287e-16 0.026831089
0.57354112 -0.05 0.041751316 -0.3146921 -2.6319461e-16 0.029653847
0.56729262 -0.05 0.042353003 -0.35112198 8.2180641e-17 0.032631712
0.56104341 -0.05 0.042947477 -0.39047891 2.0203191e-16 0.035798494
0.55479352 -0.05 0.043534579 -0.4324528 2.6800854e-17 0.039093259
0.54854293 -0.05 0.044114234 -0.47731411 4.9872678e-16 0.042543908
0.54229164 -0.05 0.044686282 -0.52520549 -1.4181336e-16 0.046138684
0.53603965 -0.05 0.045250584 -0.57640522 1.6856751e-16 0.049905727
0.52978695 -0.05 0.045807068 -0.63096848 -2.7623613e-16 0.053814825
0.52353355 -0.05 0.046355561 -0.68883757 -2.0346653e-16 0.05786186
0.51727943 -0.05 0.046895924 -0.75016742 -3.6757894e-16 0.062037543
0.51102461 -0.05 0.047427987 -0.81565023 -1.7020576e-16 0.066395077
0.50476908 -0.05 0.047951613 -0.8852544 3.6823178e-16 0.070874044
0.49851284 -0.05 0.048466677 -0.9589732 -4.9073865e-17 0.075471825
0.49225588 -0.05 0.048972983 -1.0365841 -2.1242042e-16 0.080139763
0.4859982 -0.05 0.049470327 -1.1186778 -2.4023375e-16 0.084918869
0.4797398 -0.05 0.049958584 -1.2069923 2.5514502e-16 0.090068181
0.4734807 -0.05 0.050437618 -1.3088339 6.6514399e-17 0.096214868
0.46722087 -0.05 0.050907176 -1.4266692 2.8826262e-17 0.10287677
0.46096033 -0.05 0.051367044 -1.5490162 -2.3386743e-16 0.10913198
0.45469908 -0.05 0.05181706 -1.6750615 -2.1991521e-17 0.11518509
0.44843711 -0.05 0.052257042 -1.8058182 3.0757187e-16 0.12045941
0.44217442 -0.05 0.05268676 -1.9404794 4.6999721e-17 0.12560288
0.43591102 -0.05 0.053105977 -2.0811976 -1.5212807e-16 0.13132263
0.42964692 -0.05 0.053514482 -2.2282143 8.6330767e-17 0.13684423
0.42338211 -0.05 0.053912076 -2.3815023 -1.5310484e-16 0.14217816
0.41711661 -0.05 0.054298507 -2.5407411 4.7753106e-16 0.14723231
0.4108504 -0.05 0.054673501 -2.7065381 -3.3565666e-16 0.15198005
0.40458352 -0.05 0.055036831 -2.8791525 1.0007353e-16 0.15633157
0.39831595 -0.05 0.055388212 -3.0584474 1.5280171e-16 0.16025555
0.39204771 -0.05 0.055727333 -3.2435639 -1.2787133e-16 0.1636785
0.38577882 -0.05 0.056053981 -3.4354067 2.8603285e-16 0.16656119
0.37950926 -0.05 0.056367913 -3.6346532 -1.3030553e-16 0.16878517
0.37323906 -0.05 0.056668732 -3.8408258 -3.4111313e-16 0.17027901
0.36696823 -0.05 0.056956118 -4.0530198 1.2637265e-16 0.17104517
0.3606968 -0.05 0.057229826 -4.2723297 1.6872815e-17 0.17094306
0.35442477 -0.05 0.057489522 -4.4989599 -1.7619621e-17 0.16984105
0.34815215 -0.05 0.057734847 -4.7330118 4.4400068e-17 0.16771582
0.34187898 -0.05 0.057965413 -4.9736459 -6.9792318e-17 0.16446221
0.33560527 -0.05 0.058180891 -5.2209252 3.8967546e-16 0.15998546
0.32933105 -0.05 0.058380891 -5.4752207 -3.5485111e-17 0.15403198
0.32305635 -0.05 0.058564985 -5.7367199 7.1348373e-18 0.14667711
0.31678118 -0.05 0.058732786 -6.0048798 4.7512795e-17 0.13780862
0.31050559 -0.05 0.058883876 -6.2799782 4.225156e-17 0.12748076