# yPlus  FACE_DATA 448
# x y z  yPlus
0.29605314 -0.05 -0.060858337 22.948823
0.29041712 -0.05 -0.060741577 22.521329
0.28486254 -0.05 -0.060611932 22.203842
0.27938828 -0.05 -0.060469594 21.892864
0.27399322 -0.05 -0.060314807 21.597237
0.26867625 -0.05 -0.060147849 21.314078
0.26343628 -0.05 -0.059968976 21.044109
0.25827225 -0.05 -0.059778413 20.785592
0.25318311 -0.05 -0.059576429 20.540856
0.24816779 -0.05 -0.059363252 20.30832
0.24322529 -0.05 -0.059139048 20.086721
0.2383546 -0.05 -0.058904078 19.874275
0.23355471 -0.05 -0.058658566 19.670523
0.22882463 -0.05 -0.058402757 19.473823
0.22416341 -0.05 -0.058136878 19.285521
0.2195701 -0.05 -0.057861085 19.104352
0.21504374 -0.05 -0.057575623 18.931217
0.21058341 -0.05 -0.057280701 18.766163
0.20618822 -0.05 -0.056976435 18.608066
0.20185724 -0.05 -0.056663074 18.457026
0.1975896 -0.05 -0.056340815 18.313343
0.19338442 -0.05 -0.056009875 18.176601
0.18924083 -0.05 -0.055670442 18.047916
0.185158 -0.05 -0.055322587 17.92523
0.18113509 -0.05 -0.054966545 17.808827
0.17717128 -0.05 -0.054602496 17.698783
0.17326575 -0.05 -0.054230584 17.594003
0.1694177 -0.05 -0.053851004 17.495783
0.16562635 -0.05 -0.053463903 17.403385
0.16189091 -0.05 -0.053069406 17.316608
0.15821064 -0.05 -0.05266763 17.234412
0.15458477 -0.05 -0.052258784 17.157595
0.15101258 -0.05 -0.051842973 17.086576
0.14749332 -0.05 -0.051420322 17.020242
0.14402628 -0.05 -0.050990972 16.960232
0.14061074 -0.05 -0.050555 16.904451
0.13724604 -0.05 -0.050112555 16.852783
0.13393146 -0.05 -0.049663738 16.804254
0.13066635 -0.05 -0.049208709 16.75985
0.12745002 -0.05 -0.048747564 16.719798
0.12428185 -0.05 -0.048280318 16.682549
0.12116118 -0.05 -0.047807142 16.648817
0.11808736 -0.05 -0.047328146 16.620853
0.11505979 -0.05 -0.046843333 16.596495
0.11207789 -0.05 -0.046352768 16.575708
0.10914102 -0.05 -0.045856569 16.557878
0.10624861 -0.05 -0.045354758 16.544055
0.10340008 -0.05 -0.044847417 16.532282
0.10059484 -0.05 -0.04433469 16.526117
0.097832362 -0.05 -0.043816509 16.524462
0.095112092 -0.05 -0.043292917 16.526568
0.09243348 -0.05 -0.042764046 16.534131
0.089796025 -0.05 -0.042229802 16.544399
0.087199204 -0.05 -0.041690237 16.55406
0.084642507 -0.05 -0.041145408 16.567328
0.082125439 -0.05 -0.040595331 16.58236
0.079647511 -0.05 -0.040040037 16.603823
0.077208277 -0.05 -0.03947941 16.627047
0.074807281 -0.05 -0.038913434 16.649856
0.072444053 -0.05 -0.03834217 16.671427
0.07011815 -0.05 -0.037765626 16.69442
0.067829168 -0.05 -0.037183681 16.71835
0.065576697 -0.05 -0.036596285 16.744324
0.063360328 -0.05 -0.036003424 16.776263
0.061179684 -0.05 -0.035404996 16.812511
0.059034399 -0.05 -0.03480091 16.850052
0.05692411 -0.05 -0.034191093 16.887917
0.05484848 -0.05 -0.033575436 16.925668
0.052807159 -0.05 -0.032953896 16.965188
0.050799862 -0.05 -0.032326277 17.009578
0.048826301 -0.05 -0.031692419 17.051447
0.046886175 -0.05 -0.031052251 17.095277
0.044979233 -0.05 -0.030405583 17.137931
0.043105246 -0.05 -0.029752223 17.183737
0.041264027 -0.05 -0.029091889 17.233111
0.039455381 -0.05 -0.028424383 17.288228
0.037679115 -0.05 -0.027749551 17.349197
0.035935102 -0.05 -0.027067102 17.412607
0.034223249 -0.05 -0.026376727 17.474076
0.032543487 -0.05 -0.025678111 17.532704
0.030895773 -0.05 -0.024970935 17.589484
0.029280109 -0.05 -0.024254848 17.653277
0.02769656 -0.05 -0.023529418 17.709342
0.026145206 -0.05 -0.022794267 17.748263
0.024626208 -0.05 -0.022048912 17.786212
0.023139789 -0.05 -0.021292841 17.83558
0.021686221 -0.05 -0.020525553 17.903532
0.020265903 -0.05 -0.019746428 17.95059
0.018879253 -0.05 -0.018954904 17.928388
0.017526866 -0.05 -0.01815027 17.825729
0.01620942 -0.05 -0.017331784 17.650539
0.014927683 -0.05 -0.01649872 17.479026
0.01368262 -0.05 -0.015650254 17.39998
0.012475376 -0.05 -0.014785552 17.487694
0.011307291 -0.05 -0.013903749 17.708075
0.010179937 -0.05 -0.013003882 18.093082
0.009095084 -0.05 -0.012084939 18.623724
0.008054814 -0.05 -0.011146104 19.38664
0.0070616331 -0.05 -0.010186591 20.172778
0.0061182946 -0.05 -0.0092053682 20.806322
0.00522787 -0.05 -0.008201767 21.226944
0.0043940945 -0.05 -0.0071756959 21.422338
0.0036208449 -0.05 -0.0061268534 21.326154
0.0029122046 -0.05 -0.0050554949 20.921258
0.0022728864 -0.05 -0.0039630294 20.217538
0.0017074359 -0.05 -0.0028510168 19.166841
0.0012201458 -0.05 -0.0017220366 17.704706
0.00081486582 -0.05 -0.00058019912 15.824593
0.00049459276 -0.05 0.00057003848 13.43374
0.00026097935 -0.05 0.001723339 10.308243
0.00011399538 -0.05 0.0028736441 7.3060247
5.2030727e-05 -0.05 0.0040149177 3.0139633
0.99675995 -0.05 -0.01414026 59.582125
0.99053141 -0.05 -0.014922081 64.542979
0.984302 -0.05 -0.015696897 65.098575
0.97807172 -0.05 -0.016464736 64.687517
0.97184061 -0.05 -0.017225703 64.473681
0.96560868 -0.05 -0.017979959 64.191705
0.95937593 -0.05 -0.018727485 63.919736
0.95314239 -0.05 -0.019468347 63.636963
0.94690809 -0.05 -0.020202698 63.349664
0.94067302 -0.05 -0.020930625 63.058119
0.93443721 -0.05 -0.02165213 62.762294
0.92820067 -0.05 -0.022367277 62.462209
0.92196341 -0.05 -0.023076141 62.157294
0.91572545 -0.05 -0.023778757 61.847836
0.90948679 -0.05 -0.024475278 61.533458
0.90324746 -0.05 -0.025165699 61.215251
0.89700747 -0.05 -0.025850054 60.892433
0.89076683 -0.05 -0.02652848 60.567629
0.88452555 -0.05 -0.027200988 60.241486
0.87828362 -0.05 -0.027867522 59.914461
0.87204108 -0.05 -0.028528221 59.585944
0.86579792 -0.05 -0.029183153 59.257137
0.85955416 -0.05 -0.02983229 58.926923
0.85330981 -0.05 -0.030475718 58.595528
0.84706488 -0.05 -0.031113499 58.26057
0.84081938 -0.05 -0.031745622 57.92247
0.83457331 -0.05 -0.032372049 57.579693
0.82832668 -0.05 -0.032992955 57.233146
0.82207949 -0.05 -0.0336083 56.882344
0.81583177 -0.05 -0.03421804 56.528278
0.8095835 -0.05 -0.034822253 56.173125
0.8033347 -0.05 -0.035420949 55.81879
0.79708539 -0.05 -0.036014161 55.465426
0.79083554 -0.05 -0.03660184 55.113978
0.7845852 -0.05 -0.037184077 54.764247
0.77833434 -0.05 -0.037760836 54.416138
0.77208298 -0.05 -0.038332084 54.067672
0.76583112 -0.05 -0.038897883 53.717747
0.75957876 -0.05 -0.03945822 53.363059
0.75332591 -0.05 -0.040013083 53.003086
0.74707259 -0.05 -0.040562444 52.636605
0.74081878 -0.05 -0.041106289 52.26689
0.73456449 -0.05 -0.041644604 51.896272
0.72830973 -0.05 -0.042177352 51.52814
0.7220545 -0.05 -0.042704567 51.162978
0.71579881 -0.05 -0.043226279 50.801748
0.70954264 -0.05 -0.043742313 50.442731
0.70328602 -0.05 -0.04425272 50.084204
0.69702892 -0.05 -0.044757465 49.721864
0.69077138 -0.05 -0.045256457 49.352062
0.68451337 -0.05 -0.045749751 48.972999
0.67825492 -0.05 -0.046237248 48.587078
0.67199602 -0.05 -0.04671896 48.19967
0.66573667 -0.05 -0.04719477 47.816368
0.65947687 -0.05 -0.047664578 47.438493
0.65321661 -0.05 -0.048128468 47.066511
0.64695592 -0.05 -0.048586354 46.697178
0.64069479 -0.05 -0.04903807 46.326819
0.63443321 -0.05 -0.049483583 45.94845
0.62817119 -0.05 -0.049922896 45.557574
0.62190873 -0.05 -0.050355871 45.151621
0.61564583 -0.05 -0.050782423 44.738875
0.60938249 -0.05 -0.051202549 44.329882
0.60311871 -0.05 -0.051616104 43.927367
0.59685451 -0.05 -0.052023018 43.528988
0.59058987 -0.05 -0.052423205 43.135021
0.5843248 -0.05 -0.052816574 42.739904
0.57805928 -0.05 -0.05320301 42.335631
0.57179335 -0.05 -0.05358237 41.910267
0.56552698 -0.05 -0.053954619 41.459802
0.55926019 -0.05 -0.054319635 40.991585
0.55299297 -0.05 -0.054677257 40.523252
0.54672534 -0.05 -0.055027414 40.059765
0.54045729 -0.05 -0.055369943 39.602392
0.5341888 -0.05 -0.055704704 39.15124
0.52791992 -0.05 -0.056031626 38.704094
0.52165061 -0.05 -0.056350538 38.251781
0.5153809 -0.05 -0.056661299 37.780318
0.50911078 -0.05 -0.056963739 37.273349
0.50284025 -0.05 -0.057257722 36.745395
0.49656934 -0.05 -0.057543124 36.220314
0.49029802 -0.05 -0.057819746 35.697935
0.48402632 -0.05 -0.058087386 35.180369
0.47775424 -0.05 -0.05834592 34.665315
0.47148177 -0.05 -0.058595209 34.15124
0.46520894 -0.05 -0.058835003 33.638608
0.45893575 -0.05 -0.059065089 33.125916
0.45266221 -0.05 -0.059285301 32.613096
0.44638832 -0.05 -0.05949546 32.098099
0.44011409 -0.05 -0.059695337 31.583404
0.43383954 -0.05 -0.059884694 31.071672
0.42756468 -0.05 -0.060063318 30.568291
0.4212895 -0.05 -0.060231014 30.075684
0.41501404 -0.05 -0.060387529 29.596879
0.40873831 -0.05 -0.060532589 29.129765
0.40246232 -0.05 -0.060665968 28.677205
0.39618608 -0.05 -0.06078738 28.24247
0.38990963 -0.05 -0.060896517 27.828443
0.38363296 -0.05 -0.060993164 27.430964
0.37735611 -0.05 -0.061077081 27.047324
0.37107911 -0.05 -0.06114787 26.673458
0.36480196 -0.05 -0.06120521 26.310301
0.3585247 -0.05 -0.061248861 25.956772
0.35224736 -0.05 -0.061278485 25.61275
0.34596998 -0.05 -0.061293728 25.275961
0.33969257 -0.05 -0.061294202 24.948505
0.33341518 -0.05 -0.061279579 24.629048
0.32713784 -0.05 -0.061249469 24.318235
0.32086061 -0.05 -0.061203446 24.013625
0.31458352 -0.05 -0.061141123 23.717636
0.3083066 -0.05 -0.061062085 23.433387
0.30202993 -0.05 -0.0609659 23.258256
0.29825291 -0.05 0.059129404 22.389799
0.29261638 -0.05 0.059219306 22.812853
0.28706078 -0.05 0.059293347 23.127387
0.28158498 -0.05 0.059351759 23.434587
0.27618788 -0.05 0.059394826 23.735506
0.27086836 -0.05 0.05942287 24.031444
0.26562537 -0.05 0.059436183 24.320002
0.26045782 -0.05 0.059435031 24.601501
0.25536469 -0.05 0.059419721 24.876451
0.25034492 -0.05 0.059390519 25.146938
0.24539753 -0.05 0.059347629 25.411122
0.2405215 -0.05 0.059291348 25.668953
0.23571583 -0.05 0.059221936 25.918716
0.23097957 -0.05 0.059139675 26.158811
0.22631173 -0.05 0.059044828 26.389581
0.22171139 -0.05 0.058937584 26.610852
0.21717761 -0.05 0.058818224 26.820912
0.21270948 -0.05 0.058686989 27.01957
0.20830607 -0.05 0.058544029 27.208327
0.20396652 -0.05 0.058389626 27.390433
0.19968994 -0.05 0.058224011 27.57121
0.19547546 -0.05 0.058047431 27.75527
0.19132221 -0.05 0.057860106 27.937995
0.18722937 -0.05 0.057662136 28.112
0.18319611 -0.05 0.05745379 28.26863
0.17922162 -0.05 0.057235275 28.403201
0.17530509 -0.05 0.057006767 28.511967
0.17144572 -0.05 0.056768488 28.610669
0.16764271 -0.05 0.056520617 28.716542
0.16389533 -0.05 0.056263304 28.844315
0.16020281 -0.05 0.055996694 28.988677
0.15656439 -0.05 0.055721026 29.145903
0.15297935 -0.05 0.05543643 29.314399
0.14944697 -0.05 0.05514306 29.495925
0.14596651 -0.05 0.054841079 29.696943
0.14253731 -0.05 0.054530594 29.920502
0.13915863 -0.05 0.054211776 30.16286
0.13582984 -0.05 0.053884754 30.417274
0.13255024 -0.05 0.05354971 30.674385
0.12931917 -0.05 0.053206767 30.930377
0.126136 -0.05 0.052855961 31.180365
0.12300008 -0.05 0.052497489 31.42345
0.11991077 -0.05 0.052131482 31.658893
0.11686747 -0.05 0.051757968 31.884745
0.11386958 -0.05 0.051377031 32.100406
0.1109165 -0.05 0.050988813 32.306156
0.10800765 -0.05 0.050593359 32.502295
0.10514244 -0.05 0.050190769 32.687015
0.10232029 -0.05 0.04978121 32.862416
0.099540669 -0.05 0.049364634 33.028128
0.096803038 -0.05 0.048941103 33.181801
0.094106841 -0.05 0.048510769 33.326188
0.091451575 -0.05 0.048073557 33.46155
0.088836723 -0.05 0.047629539 33.585603
0.086261774 -0.05 0.04717879 33.701847
0.083726234 -0.05 0.046721343 33.80789
0.081229618 -0.05 0.046257248 33.906597
0.078771473 -0.05 0.045786407 33.995686
0.076351345 -0.05 0.045308817 34.07449
0.073968767 -0.05 0.044824559 34.143895
0.071623294 -0.05 0.044333657 34.205354
0.069314519 -0.05 0.043836003 34.258063
0.067042032 -0.05 0.043331563 34.300349
0.064805421 -0.05 0.042820339 34.334435
0.062604307 -0.05 0.042302244 34.35952
0.060438321 -0.05 0.041777197 34.375186
0.058307099 -0.05 0.041245141 34.381295
0.056210296 -0.05 0.040705978 34.378974
0.054147566 -0.05 0.040159678 34.366495
0.052118613 -0.05 0.039606057 34.349376
0.050123144 -0.05 0.039044964 34.319375
0.048160856 -0.05 0.03847634 34.281577
0.046231493 -0.05 0.037900004 34.233851
0.044334817 -0.05 0.037315772 34.177738
0.042470632 -0.05 0.03672337 34.111548
0.040638734 -0.05 0.036122607 34.035166
0.038838927 -0.05 0.035513335 33.948832
0.037071071 -0.05 0.03489527 33.855413
0.035335063 -0.05 0.034268106 33.751157
0.033630823 -0.05 0.033631529 33.638894
0.031958295 -0.05 0.032985225 33.515474
0.030317468 -0.05 0.032328839 33.384796
0.028708395 -0.05 0.031661941 33.243718
0.027131137 -0.05 0.030984147 33.093631
0.02558584 -0.05 0.03029497 32.93507
0.024072706 -0.05 0.029593892 32.766771
0.022591991 -0.05 0.028880398 32.588225
0.021144068 -0.05 0.028153856 32.400809
0.019729339 -0.05 0.027413691 32.200239
0.018348367 -0.05 0.026659168 31.991912
0.017001805 -0.05 0.025889523 31.76624
0.015690394 -0.05 0.025104 31.529227
0.014415068 -0.05 0.02430174 31.273151
0.01317694 -0.05 0.023481869 30.998213
0.011977319 -0.05 0.022643474 30.696029
0.010817739 -0.05 0.021785534 30.3742
0.0096999315 -0.05 0.020906972 30.008487
0.0086259487 -0.05 0.020006899 29.593195
0.0075982651 -0.05 0.019084435 29.122116
0.0066195945 -0.05 0.018138448 28.582172
0.0056929822 -0.05 0.017168158 27.948587
0.0048221572 -0.05 0.016173339 27.198026
0.0040109829 -0.05 0.015153544 26.29293
0.0032635491 -0.05 0.01410888 25.202958
0.0025846173 -0.05 0.013040582 23.898379
0.0019787869 -0.05 0.011950042 22.335815
0.0014504425 -0.05 0.010839682 20.478112
0.0010035818 -0.05 0.0097134675 18.288083
0.00064136301 -0.05 0.008575742 15.74931
0.0003656334 -0.05 0.0074317793 12.776855
0.00017658479 -0.05 0.0062876347 9.5040435
7.2829424e-05 -0.05 0.0051493995 6.1633125
0.99677643 -0.05 -0.013241059 3.865898
0.99058074 -0.05 -0.012231463 0.16223834
0.98438391 -0.05 -0.011228834 0.62494729
0.97818597 -0.05 -0.010233146 0.39662131
0.97198693 -0.05 -0.009244294 0.43036447
0.96578683 -0.05 -0.0082621193 0.19396629
0.95958568 -0.05 -0.0072866395 0.35604193
0.95338349 -0.05 -0.0063177912 0.30737953
0.94718028 -0.05 -0.0053554203 0.3461768
0.94097609 -0.05 -0.0043994423 0.34291504
0.93477091 -0.05 -0.0034498528 0.35793787
0.92856478 -0.05 -0.0025065919 0.36433974
0.92235769 -0.05 -0.0015695831 0.37373373
0.91614967 -0.05 -0.00063879187 0.38061729
0.90994074 -0.05 0.00028593244 0.38930711
0.90373091 -0.05 0.0012045873 0.3977228
0.8975202 -0.05 0.0021172038 0.40929149
0.89130862 -0.05 0.0030239177 0.41496441
0.88509618 -0.05 0.0039247425 0.42388598
0.87888288 -0.05 0.0048196214 0.43129444
0.87266875 -0.05 0.0057086917 0.44077575
0.8664538 -0.05 0.006592021 0.44895277
0.86023803 -0.05 0.0074695808 0.45838769
0.85402145 -0.05 0.0083414573 0.46840698
0.8478041 -0.05 0.0092077128 0.48194829
0.84158597 -0.05 0.010068334 0.4896175
0.83536705 -0.05 0.010923283 0.50121439
0.82914738 -0.05 0.011772737 0.51046435
0.82292695 -0.05 0.012616655 0.52103967
0.81670577 -0.05 0.01345499 0.53048341
0.81048385 -0.05 0.014287821 0.54574469
0.8042612 -0.05 0.015115158 0.5692186
0.79803782 -0.05 0.015937034 0.59556769
0.79181372 -0.05 0.016753402 0.71388439
0.78558891 -0.05 0.017564349 0.77105425
0.7793634 -0.05 0.018369839 0.76467889
0.77313716 -0.05 0.019169841 0.77995567
0.76691025 -0.05 0.019964417 0.75511719
0.76068263 -0.05 0.020753551 0.76468415
0.75445433 -0.05 0.021537233 0.75332336
0.74822535 -0.05 0.022315436 0.73139596
0.74199567 -0.05 0.023088143 0.69508989
0.73576532 -0.05 0.023855341 0.6373333
0.72953429 -0.05 0.024616994 0.54294096
0.72330258 -0.05 0.025373134 0.38440519
0.71707021 -0.05 0.026123792 0.22342781
0.71083717 -0.05 0.026868794 0.51835339
0.70460345 -0.05 0.027608189 0.680976
0.69836908 -0.05 0.028341944 0.83619426
0.69213402 -0.05 0.029069964 0.98732706
0.6858983 -0.05 0.029792309 1.1400144
0.67966193 -0.05 0.030508877 1.2932069
0.6734249 -0.05 0.031219679 1.4497644
0.66718718 -0.05 0.0319246 1.6089546
0.66094881 -0.05 0.032623539 1.7720211
0.65470976 -0.05 0.033316582 1.9433143
0.64847006 -0.05 0.03400364 2.1247811
0.64222969 -0.05 0.03468455 2.3145271
0.63598865 -0.05 0.035359276 2.5113615
0.62974694 -0.05 0.036027822 2.714953
0.62350456 -0.05 0.036690051 2.924742
0.6172615 -0.05 0.037345877 3.1392577
0.61101777 -0.05 0.037995298 3.3597753
0.60477337 -0.05 0.038638168 3.5845961
0.59852829 -0.05 0.039274417 3.814299
0.59228253 -0.05 0.03990396 4.0520705
0.58603607 -0.05 0.040526707 4.311861
0.57978894 -0.05 0.04114254 4.5763813
0.57354112 -0.05 0.041751316 4.8440927
0.56729262 -0.05 0.042353003 5.1168649
0.56104341 -0.05 0.042947477 5.3957831
0.55479352 -0.05 0.043534579 5.6788909
0.54854293 -0.05 0.044114234 5.9662347
0.54229164 -0.05 0.044686282 6.2586098
0.53603965 -0.05 0.045250584 6.5564756
0.52978695 -0.05 0.045807068 6.8600736
0.52353355 -0.05 0.046355561 7.1676254
0.51727943 -0.05 0.046895924 7.4797637
0.51102461 -0.05 0.047427987 7.7987961
0.50476908 -0.05 0.047951613 8.125242
0.49851284 -0.05 0.048466677 8.456689
0.49225588 -0.05 0.048972983 8.7923861
0.4859982 -0.05 0.049470327 9.1335992
0.4797398 -0.05 0.049958584 9.4875197
0.4734807 -0.05 0.050437618 9.879604
0.46722087 -0.05 0.050907176 10.31488
0.46096033 -0.05 0.051367044 10.747772
0.45469908 -0.05 0.05181706 11.177014
0.44843711 -0.05 0.052257042 11.604811
0.44217442 -0.05 0.05268676 12.029578
0.43591102 -0.05 0.053105977 12.457786
0.42964692 -0.05 0.053514482 12.890262
0.42338211 -0.05 0.053912076 13.325924
0.41711661 -0.05 0.054298507 13.763885
0.4108504 -0.05 0.054673501 14.205206
0.40458352 -0.05 0.055036831 14.651247
0.39831595 -0.05 0.055388212 15.1002
0.39204771 -0.05 0.055727333 15.550299
0.38577882 -0.05 0.056053981 16.003069
0.37950926 -0.05 0.056367913 16.460496
0.37323906 -0.05 0.056668732 16.920455
0.36696823 -0.05 0.056956118 17.381176
0.3606968 -0.05 0.057229826 17.844334
0.35442477 -0.05 0.057489522 18.311215
0.34815215 -0.05 0.057734847 18.780743
0.34187898 -0.05 0.057965413 19.251525
0.33560527 -0.05 0.058180891 19.722968
0.32933105 -0.05 0.058380891 20.196665
0.32305635 -0.05 0.058564985 20.671717
0.31678118 -0.05 0.058732786 21.147823
0.31050559 -0.05 0.058883876 21.62528
0.30422962 -0.05 0.059017822 22.004567
