# p  FACE_DATA 448
# x y z  p
0.29503397 -0.05 -0.061616316 99574.05
0.28940067 -0.05 -0.061405779 99569.924
0.28384902 -0.05 -0.061183714 99566.779
0.27837789 -0.05 -0.060950294 99563.688
0.27298615 -0.05 -0.060705745 99560.729
0.2676727 -0.05 -0.060450327 99557.96
0.26243643 -0.05 -0.060184275 99555.259
0.25727629 -0.05 -0.059907799 99552.795
0.25219121 -0.05 -0.059621152 99550.338
0.24718014 -0.05 -0.059324541 99548.089
0.24224205 -0.05 -0.059018115 99545.888
0.23737594 -0.05 -0.05870212 99543.883
0.23258079 -0.05 -0.058376763 99542.027
0.22785564 -0.05 -0.058042273 99540.294
0.22319949 -0.05 -0.05769886 99538.68
0.2186114 -0.05 -0.057346663 99537.29
0.21409042 -0.05 -0.056985914 99535.873
0.20963562 -0.05 -0.056616806 99534.658
0.20524609 -0.05 -0.056239438 99533.622
0.20092093 -0.05 -0.055854044 99532.711
0.19665924 -0.05 -0.055460809 99531.991
0.19246014 -0.05 -0.055059932 99531.294
0.18832278 -0.05 -0.05465159 99530.782
0.18424631 -0.05 -0.054235837 99530.549
0.18022988 -0.05 -0.053812896 99530.321
0.17627268 -0.05 -0.053382932 99530.361
0.17237388 -0.05 -0.052946077 99530.479
0.16853268 -0.05 -0.052502511 99530.791
0.16474829 -0.05 -0.052052369 99531.165
0.16101994 -0.05 -0.051595762 99531.809
0.15734687 -0.05 -0.051132795 99532.621
0.15372831 -0.05 -0.050663665 99533.518
0.15016352 -0.05 -0.050188464 99534.641
0.14665179 -0.05 -0.049707305 99535.87
0.14319237 -0.05 -0.049220316 99537.34
0.13978456 -0.05 -0.048727564 99538.99
0.13642769 -0.05 -0.048229185 99540.748
0.13312104 -0.05 -0.047725271 99542.764
0.12986395 -0.05 -0.047215967 99544.808
0.12665574 -0.05 -0.04670136 99547.197
0.12349578 -0.05 -0.046181454 99549.83
0.12038342 -0.05 -0.04565641 99552.521
0.117318 -0.05 -0.045126327 99555.435
0.11429892 -0.05 -0.044591197 99558.605
0.11132559 -0.05 -0.044051075 99561.93
0.10839739 -0.05 -0.04350607 99565.386
0.10551373 -0.05 -0.042956194 99569.229
0.10267404 -0.05 -0.042401518 99573.142
0.099877725 -0.05 -0.041842179 99577.219
0.097124248 -0.05 -0.041278097 99581.761
0.094413069 -0.05 -0.040709307 99586.417
0.09174363 -0.05 -0.040135932 99591.29
0.089115431 -0.05 -0.039557869 99596.708
0.086527949 -0.05 -0.038975164 99602.237
0.083980673 -0.05 -0.038387862 99608.228
0.081473107 -0.05 -0.037795973 99614.286
0.079004763 -0.05 -0.037199518 99620.737
0.076575198 -0.05 -0.036598376 99627.656
0.074183953 -0.05 -0.035992521 99634.972
0.071830559 -0.05 -0.035382008 99642.52
0.069514573 -0.05 -0.034766837 99650.484
0.067235593 -0.05 -0.03414688 99658.983
0.064993209 -0.05 -0.03352208 99667.824
0.062787013 -0.05 -0.032892416 99677.097
0.060616629 -0.05 -0.032257781 99686.897
0.058481694 -0.05 -0.031618077 99697.213
0.056381846 -0.05 -0.030973226 99708.053
0.054316749 -0.05 -0.030323112 99719.478
0.052286055 -0.05 -0.029667687 99731.28
0.050289481 -0.05 -0.029006749 99744.053
0.048326741 -0.05 -0.028340136 99757.301
0.046397537 -0.05 -0.02766777 99771.291
0.044501621 -0.05 -0.026989456 99785.908
0.042638767 -0.05 -0.026305 99801.418
0.040808792 -0.05 -0.025614116 99817.985
0.039011505 -0.05 -0.024916603 99835.377
0.037246715 -0.05 -0.024212304 99853.57
0.035514301 -0.05 -0.023500927 99873.409
0.033814174 -0.05 -0.022782159 99893.951
0.032146271 -0.05 -0.022055685 99915.886
0.030510553 -0.05 -0.021321187 99939.097
0.02890703 -0.05 -0.020578312 99963.886
0.027335774 -0.05 -0.019826629 99990.284
0.025796869 -0.05 -0.019065762 100018.34
0.024290485 -0.05 -0.018295231 100048.4
0.022816854 -0.05 -0.017514529 100080.45
0.021376256 -0.05 -0.016723156 100114.67
0.0199691 -0.05 -0.015920502 100151.28
0.018595817 -0.05 -0.015106012 100190.25
0.017257008 -0.05 -0.014278984 100232.54
0.015953364 -0.05 -0.013438687 100277.8
0.014685668 -0.05 -0.012584408 100326.69
0.013454898 -0.05 -0.011715339 100379.47
0.012262211 -0.05 -0.010830665 100436.43
0.011108962 -0.05 -0.0099295446 100497.33
0.0099967398 -0.05 -0.0090110425 100563.04
0.0089273303 -0.05 -0.0080741719 100633.34
0.0079028283 -0.05 -0.0071181554 100708.75
0.006925753 -0.05 -0.0061422472 100789.08
0.0059988743 -0.05 -0.0051454608 100874.35
0.0051252748 -0.05 -0.0041271803 100963.63
0.0043086905 -0.05 -0.0030873757 101056.29
0.0035530027 -0.05 -0.0020258102 101150.87
0.0028622899 -0.05 -0.00094280699 101245.06
0.0022412409 -0.05 0.0001601465 101335.57
0.0016943746 -0.05 0.0012814153 101417.62
0.0012259402 -0.05 0.0024183485 101487.14
0.00083971856 -0.05 0.0035667725 101541.61
0.00053863185 -0.05 0.0047221807 101574.3
0.00032424381 -0.05 0.0058792093 101582.17
0.00019642335 -0.05 0.0070318012 101564.51
0.00015346014 -0.05 0.0081739479 101519
0.99642121 -0.05 -0.026565739 100175.64
0.99018053 -0.05 -0.027243796 100202.97
0.98393908 -0.05 -0.027914836 100181.16
0.9776969 -0.05 -0.028578885 100177.08
0.97145398 -0.05 -0.02923605 100165.84
0.96521035 -0.05 -0.029886491 100156.71
0.95896603 -0.05 -0.03053019 100146.75
0.95272103 -0.05 -0.031167211 100137
0.94647537 -0.05 -0.031797711 100127.3
0.94022905 -0.05 -0.032421774 100117.66
0.9339821 -0.05 -0.033039406 100108.15
0.92773452 -0.05 -0.033650665 100098.94
0.92148632 -0.05 -0.034255632 100089.77
0.91523752 -0.05 -0.03485434 100080.83
0.90898815 -0.05 -0.035446941 100071.96
0.9027382 -0.05 -0.036033434 100063.47
0.89648768 -0.05 -0.036613849 100055.06
0.89023661 -0.05 -0.037188325 100046.86
0.88398499 -0.05 -0.037756873 100038.8
0.87773284 -0.05 -0.038319438 100031
0.87148017 -0.05 -0.038876158 100023.3
0.86522698 -0.05 -0.039427103 100015.8
0.85897329 -0.05 -0.039972242 100008.43
0.85271909 -0.05 -0.040511664 100001.35
0.84646442 -0.05 -0.041045431 99994.342
0.84020926 -0.05 -0.041573528 99987.511
0.83395362 -0.05 -0.042095922 99980.809
0.82769753 -0.05 -0.042612787 99974.227
0.82144097 -0.05 -0.043124084 99967.807
0.81518396 -0.05 -0.043629766 99961.475
0.8089265 -0.05 -0.044129912 99955.289
0.80266861 -0.05 -0.044624534 99949.201
0.79641029 -0.05 -0.045113663 99943.231
0.79015153 -0.05 -0.045597254 99937.36
0.78389235 -0.05 -0.046075393 99931.572
0.77763277 -0.05 -0.046548046 99925.899
0.77137276 -0.05 -0.047015181 99920.299
0.76511234 -0.05 -0.047476859 99914.778
0.75885153 -0.05 -0.047933067 99909.341
0.75259032 -0.05 -0.048383794 99903.974
0.74632872 -0.05 -0.048829013 99898.685
0.74006672 -0.05 -0.049268709 99893.449
0.73380435 -0.05 -0.049702867 99888.284
0.72754159 -0.05 -0.05013145 99883.184
0.72127845 -0.05 -0.050554494 99878.127
0.71501494 -0.05 -0.050972027 99873.105
0.70875105 -0.05 -0.051383875 99868.186
0.70248679 -0.05 -0.05179009 99863.221
0.69622217 -0.05 -0.052190638 99858.387
0.68995719 -0.05 -0.052585423 99853.535
0.68369184 -0.05 -0.052974504 99848.751
0.67742614 -0.05 -0.053357782 99843.985
0.67116009 -0.05 -0.053735268 99839.228
0.66489369 -0.05 -0.054106845 99834.537
0.65862694 -0.05 -0.054472412 99829.874
0.65235983 -0.05 -0.054832057 99825.182
0.64609239 -0.05 -0.05518569 99820.532
0.6398246 -0.05 -0.055533147 99815.899
0.63355648 -0.05 -0.055874394 99811.286
0.62728801 -0.05 -0.056209435 99806.64
0.62101921 -0.05 -0.056538131 99802.088
0.61475008 -0.05 -0.056860398 99797.536
0.60848062 -0.05 -0.057176232 99793.027
0.60221083 -0.05 -0.05748549 99788.533
0.59594072 -0.05 -0.057788099 99784.011
0.58967029 -0.05 -0.058083976 99779.504
0.58339953 -0.05 -0.058373029 99774.979
0.57712846 -0.05 -0.058655142 99770.487
0.57085708 -0.05 -0.058930173 99766
0.56458539 -0.05 -0.059198087 99761.48
0.55831339 -0.05 -0.059458762 99756.988
0.55204109 -0.05 -0.059712036 99752.475
0.5457685 -0.05 -0.05995784 99747.94
0.53949561 -0.05 -0.060196009 99743.444
0.53322243 -0.05 -0.060426405 99738.941
0.52694896 -0.05 -0.060648957 99734.417
0.52067521 -0.05 -0.060863492 99729.914
0.5144012 -0.05 -0.06106987 99725.398
0.50812692 -0.05 -0.061267923 99720.923
0.50185237 -0.05 -0.061457512 99716.369
0.49557757 -0.05 -0.061638515 99711.837
0.48930252 -0.05 -0.061810733 99707.304
0.48302723 -0.05 -0.061973963 99702.821
0.47675171 -0.05 -0.062128082 99698.272
0.47047597 -0.05 -0.062272952 99693.746
0.46420003 -0.05 -0.062408322 99689.223
0.45792387 -0.05 -0.062533978 99684.723
0.45164753 -0.05 -0.062649757 99680.156
0.44537101 -0.05 -0.062755477 99675.627
0.43909433 -0.05 -0.062850912 99671.089
0.43281749 -0.05 -0.062935823 99666.609
0.42654052 -0.05 -0.063009997 99662.084
0.42026342 -0.05 -0.063073239 99657.564
0.41398623 -0.05 -0.063125299 99653.065
0.40770895 -0.05 -0.063165899 99648.62
0.40143162 -0.05 -0.063194815 99644.088
0.39515422 -0.05 -0.063211762 99639.668
0.38887682 -0.05 -0.063216433 99635.259
0.38259942 -0.05 -0.063208611 99630.829
0.37632204 -0.05 -0.063188059 99626.369
0.37004473 -0.05 -0.063154377 99622.064
0.3637675 -0.05 -0.063107246 99617.754
0.35749039 -0.05 -0.063046426 99613.492
0.35121342 -0.05 -0.06297158 99609.152
0.34493664 -0.05 -0.062882355 99604.904
0.3386601 -0.05 -0.062778361 99600.729
0.33238382 -0.05 -0.062659273 99596.569
0.32610786 -0.05 -0.0625247 99592.466
0.31983226 -0.05 -0.062374219 99588.493
0.31355706 -0.05 -0.062207442 99584.705
0.30728234 -0.05 -0.062023956 99580.774
0.30100814 -0.05 -0.061823329 99575.749
0.29923024 -0.05 0.0583182 99364.448
0.29359599 -0.05 0.058501892 99357.78
0.2880424 -0.05 0.058668378 99350.757
0.28256833 -0.05 0.058817908 99343.947
0.27717269 -0.05 0.058950788 99337.189
0.27185438 -0.05 0.059067354 99330.557
0.26661232 -0.05 0.059167917 99323.993
0.26144548 -0.05 0.059252763 99317.556
0.2563528 -0.05 0.059322214 99311.097
0.25133325 -0.05 0.059376555 99304.798
0.24638582 -0.05 0.059416004 99298.594
0.24150953 -0.05 0.059440876 99292.474
0.23670337 -0.05 0.059451448 99286.456
0.23196639 -0.05 0.05944802 99280.47
0.22729762 -0.05 0.059430867 99274.564
0.22269614 -0.05 0.059400195 99268.826
0.218161 -0.05 0.059356302 99263.058
0.21369129 -0.05 0.059299444 99257.443
0.20928612 -0.05 0.059229785 99251.962
0.20494461 -0.05 0.059147621 99246.548
0.20066586 -0.05 0.059053198 99241.256
0.19644902 -0.05 0.058946779 99235.923
0.19229323 -0.05 0.058828597 99230.718
0.18819767 -0.05 0.058698767 99225.684
0.18416151 -0.05 0.058557571 99220.64
0.18018393 -0.05 0.058405229 99215.797
0.17626412 -0.05 0.05824193 99210.982
0.17240132 -0.05 0.058067912 99206.27
0.16859473 -0.05 0.057883364 99201.578
0.16484358 -0.05 0.05768845 99197.063
0.16114713 -0.05 0.057483327 99192.642
0.15750463 -0.05 0.057268247 99188.243
0.15391535 -0.05 0.057043352 99183.994
0.15037857 -0.05 0.056808808 99179.735
0.14689357 -0.05 0.056564789 99175.62
0.14345967 -0.05 0.056311416 99171.613
0.14007617 -0.05 0.056048869 99167.741
0.13674239 -0.05 0.05577729 99163.994
0.13345767 -0.05 0.055496871 99160.23
0.13022134 -0.05 0.055207745 99156.657
0.12703277 -0.05 0.054909962 99153.274
0.12389132 -0.05 0.054603727 99149.801
0.12079635 -0.05 0.054289183 99146.423
0.11774726 -0.05 0.053966366 99143.186
0.11474344 -0.05 0.053635372 99140.107
0.11178431 -0.05 0.053296354 99137.074
0.10886927 -0.05 0.052949362 99134.314
0.10599776 -0.05 0.05259451 99131.535
0.10316919 -0.05 0.052231974 99128.853
0.10038302 -0.05 0.051861714 99126.451
0.097638722 -0.05 0.0514838 99124.029
0.094935736 -0.05 0.051098395 99121.672
0.092273563 -0.05 0.050705432 99119.646
0.089651683 -0.05 0.050304992 99117.595
0.087069589 -0.05 0.049897157 99115.832
0.084526788 -0.05 0.049481969 99114.042
0.082022793 -0.05 0.049059486 99112.505
0.079557154 -0.05 0.048629618 99111.244
0.077129413 -0.05 0.04819237 99110.167
0.074739106 -0.05 0.04774783 99109.069
0.072385788 -0.05 0.047296028 99108.124
0.070069052 -0.05 0.046836866 99107.529
0.067788485 -0.05 0.046370314 99107.195
0.065543675 -0.05 0.045896382 99107.155
0.063334245 -0.05 0.045414989 99107.438
0.06115982 -0.05 0.044926061 99107.855
0.059020038 -0.05 0.044429546 99108.431
0.056914555 -0.05 0.043925352 99109.271
0.054843018 -0.05 0.043413456 99110.355
0.052805133 -0.05 0.042893675 99112.231
0.050800603 -0.05 0.04236587 99114.479
0.048829124 -0.05 0.04182998 99117.16
0.046890437 -0.05 0.041285832 99120.029
0.044984301 -0.05 0.040733245 99123.269
0.043110515 -0.05 0.040171948 99127.255
0.041268874 -0.05 0.039601754 99132.036
0.039459175 -0.05 0.03902252 99137.594
0.037681279 -0.05 0.038433961 99143.998
0.035935074 -0.05 0.037835773 99150.898
0.034220476 -0.05 0.037227646 99158.272
0.032537425 -0.05 0.036609265 99166.557
0.030885902 -0.05 0.035980277 99176.528
0.029265952 -0.05 0.035340248 99188.025
0.027677633 -0.05 0.034688797 99200.902
0.02612108 -0.05 0.034025432 99215.024
0.024596489 -0.05 0.033349632 99230.862
0.023104106 -0.05 0.032660879 99249.213
0.021644293 -0.05 0.031958533 99270.048
0.020217441 -0.05 0.031242014 99293.218
0.018824105 -0.05 0.030510578 99318.825
0.01746492 -0.05 0.029763449 99346.16
0.016140618 -0.05 0.028999858 99376.868
0.014852118 -0.05 0.028218934 99412.167
0.013600518 -0.05 0.027419781 99452.974
0.012387109 -0.05 0.026601465 99499.915
0.011213412 -0.05 0.025762943 99554.434
0.010081139 -0.05 0.024903105 99617.495
0.0089923262 -0.05 0.024021029 99689.867
0.0079494334 -0.05 0.023115795 99771.086
0.0069551555 -0.05 0.022186226 99860.842
0.0060125241 -0.05 0.021231491 99958.617
0.0051252641 -0.05 0.020251301 100070.53
0.0042972309 -0.05 0.019245148 100193.44
0.0035325156 -0.05 0.018213066 100327.42
0.0028358994 -0.05 0.017156216 100472.8
0.0022120043 -0.05 0.01607591 100626.58
0.0016652546 -0.05 0.014974495 100784.51
0.0011997136 -0.05 0.013855873 100941.7
0.00081861117 -0.05 0.012724333 101092.68
0.00052388213 -0.05 0.011585118 101232.29
0.00031581907 -0.05 0.010444278 101352.04
0.00019313577 -0.05 0.0093079265 101447.36
0.99645266 -0.05 -0.025666936 100307.88
0.99027463 -0.05 -0.024554371 100268.91
0.98409535 -0.05 -0.023448755 100233.43
0.97791483 -0.05 -0.022350061 100209.4
0.97173311 -0.05 -0.021258182 100187.89
0.96555022 -0.05 -0.020172963 100168.89
0.95936615 -0.05 -0.01909442 100151.52
0.95318094 -0.05 -0.018022489 100135.45
0.94699461 -0.05 -0.016957019 100120.58
0.94080719 -0.05 -0.015897925 100106.46
0.93461868 -0.05 -0.014845201 100093.4
0.9284291 -0.05 -0.01379879 100080.81
0.92223846 -0.05 -0.012758614 100069
0.91604679 -0.05 -0.011724639 100057.59
0.90985411 -0.05 -0.010696715 100046.85
0.90366043 -0.05 -0.0096748439 100036.45
0.89746577 -0.05 -0.0086589965 100026.54
0.89127014 -0.05 -0.0076490363 100016.81
0.88507355 -0.05 -0.00664495 100007.59
0.87887599 -0.05 -0.0056467944 99998.604
0.87267752 -0.05 -0.0046544329 99989.806
0.86647812 -0.05 -0.0036677978 99981.193
0.86027783 -0.05 -0.0026869179 99973.009
0.85407663 -0.05 -0.0017117073 99964.89
0.84787455 -0.05 -0.00074210369 99956.991
0.84167159 -0.05 0.00022187895 99949.226
0.83546776 -0.05 0.0011802044 99941.807
0.82926309 -0.05 0.002133047 99934.266
0.82305757 -0.05 0.0030803668 99927.076
0.81685121 -0.05 0.0040221173 99919.864
0.81064401 -0.05 0.0049583774 99912.984
0.80443598 -0.05 0.0058891567 99906.032
0.79822715 -0.05 0.0068144864 99899.26
0.79201749 -0.05 0.0077343215 99892.53
0.78580704 -0.05 0.008648748 99885.902
0.77959579 -0.05 0.0095577308 99879.343
0.77338374 -0.05 0.010461238 99872.836
0.76717091 -0.05 0.01135933 99866.315
0.76095728 -0.05 0.012251994 99859.945
0.75474289 -0.05 0.013139218 99853.559
0.74852772 -0.05 0.014020975 99847.287
0.74231176 -0.05 0.014897249 99841.028
0.73609505 -0.05 0.015768025 99834.881
0.72987755 -0.05 0.016633267 99828.78
0.72365929 -0.05 0.01749301 99822.67
0.71744028 -0.05 0.018347282 99816.498
0.7112205 -0.05 0.019195909 99810.589
0.70499995 -0.05 0.020038942 99804.408
0.69877864 -0.05 0.020876346 99798.42
0.69255657 -0.05 0.021708029 99792.318
0.68633374 -0.05 0.022534047 99786.296
0.68011015 -0.05 0.0233543 99780.233
0.6738858 -0.05 0.0241688 99774.106
0.66766069 -0.05 0.02497743 99768.094
0.66143481 -0.05 0.025780091 99762.167
0.65520817 -0.05 0.026576866 99756.123
0.64898077 -0.05 0.027367669 99750.151
0.6427526 -0.05 0.028152335 99744.171
0.63652364 -0.05 0.02893083 99738.201
0.63029392 -0.05 0.029703156 99732.087
0.62406342 -0.05 0.030469178 99726.047
0.61783215 -0.05 0.03122881 99719.921
0.61160009 -0.05 0.031982047 99713.802
0.60536725 -0.05 0.032728748 99707.676
0.59913362 -0.05 0.033468838 99701.506
0.59289919 -0.05 0.034202234 99695.312
0.58666398 -0.05 0.034928846 99689.042
0.58042796 -0.05 0.035648557 99682.76
0.57419114 -0.05 0.036361225 99676.46
0.5679535 -0.05 0.037066815 99670.095
0.56171507 -0.05 0.037765204 99663.767
0.55547581 -0.05 0.038456234 99657.388
0.54923573 -0.05 0.039139831 99650.914
0.54299482 -0.05 0.039815832 99644.437
0.53675308 -0.05 0.0404841 99637.904
0.53051051 -0.05 0.041144563 99631.367
0.52426711 -0.05 0.04179705 99624.819
0.51802286 -0.05 0.042441417 99618.183
0.51177775 -0.05 0.043077497 99611.545
0.50553179 -0.05 0.043705154 99604.814
0.499285 -0.05 0.044324262 99598.043
0.49303733 -0.05 0.044934625 99591.247
0.48678879 -0.05 0.04553604 99584.471
0.48053939 -0.05 0.04612838 99577.604
0.47428913 -0.05 0.04671151 99570.692
0.46803798 -0.05 0.047285178 99563.774
0.46178596 -0.05 0.047849169 99556.858
0.45553306 -0.05 0.048403322 99549.885
0.44927927 -0.05 0.048947452 99542.873
0.44302461 -0.05 0.049481335 99535.828
0.43676906 -0.05 0.050004727 99528.776
0.43051262 -0.05 0.050517421 99521.653
0.42425529 -0.05 0.051019218 99514.467
0.41799708 -0.05 0.051509866 99507.252
0.411738 -0.05 0.051989088 99500.032
0.40547803 -0.05 0.052456659 99492.723
0.39921718 -0.05 0.052912295 99485.433
0.39295545 -0.05 0.053355685 99478.124
0.38669285 -0.05 0.053786613 99470.746
0.38042938 -0.05 0.054204839 99463.287
0.37416506 -0.05 0.054609964 99455.9
0.36789989 -0.05 0.055001667 99448.444
0.36163388 -0.05 0.055379706 99440.979
0.35536703 -0.05 0.055743742 99433.458
0.34909938 -0.05 0.056093422 99425.931
0.34283091 -0.05 0.056428354 99418.376
0.33656165 -0.05 0.056748208 99410.74
0.33029163 -0.05 0.057052594 99403.111
0.32402085 -0.05 0.057341085 99395.492
0.31774936 -0.05 0.057613293 99387.698
0.31147715 -0.05 0.057868799 99379.557
0.30520427 -0.05 0.058107169 99372.33
