# wallShearStress  FACE_DATA 448
# x y z  wallShearStress_x wallShearStress_y wallShearStress_z
0.29503397 -0.05 -0.061616316 -6.989041 -2.2489049e-16 0.26423548
0.28940067 -0.05 -0.061405779 -7.0962872 3.4369566e-16 0.28684388
0.28384902 -0.05 -0.061183714 -7.2770938 -1.2025052e-16 0.3138788
0.27837789 -0.05 -0.060950294 -7.4501244 3.8654305e-16 0.34138579
0.27298615 -0.05 -0.060705745 -7.6248565 1.7020714e-16 0.37004148
0.2676727 -0.05 -0.060450327 -7.80007 3.3298763e-16 0.39993934
0.26243643 -0.05 -0.060184275 -7.9753359 1.2581476e-16 0.43092764
0.25727629 -0.05 -0.059907799 -8.1501053 -1.3675311e-16 0.46318037
0.25219121 -0.05 -0.059621152 -8.3242246 2.5236405e-16 0.49649076
0.24718014 -0.05 -0.059324541 -8.4981971 4.0966685e-16 0.53123888
0.24224205 -0.05 -0.059018115 -8.6718656 4.4480337e-16 0.5671212
0.23737594 -0.05 -0.05870212 -8.8455709 -2.5314986e-17 0.60427888
0.23258079 -0.05 -0.058376763 -9.0181759 1.517393e-16 0.6425303
0.22785564 -0.05 -0.058042273 -9.1884227 -3.1844104e-16 0.68191345
0.22319949 -0.05 -0.05769886 -9.3576615 5.0628057e-17 0.72260778
0.2186114 -0.05 -0.057346663 -9.5246862 5.2170386e-16 0.76450019
0.21409042 -0.05 -0.056985914 -9.6897087 -1.0045041e-16 0.80748444
0.20963562 -0.05 -0.056616806 -9.8535273 1.8270482e-16 0.85199902
0.20524609 -0.05 -0.056239438 -10.014305 -1.6828366e-16 0.89755218
0.20092093 -0.05 -0.055854044 -10.172745 5.2062986e-16 0.94422098
0.19665924 -0.05 -0.055460809 -10.329901 2.2072787e-16 0.99222623
0.19246014 -0.05 -0.055059932 -10.485812 1.290753e-16 1.0414184
0.18832278 -0.05 -0.05465159 -10.64072 -1.4809528e-16 1.0921677
0.18424631 -0.05 -0.054235837 -10.793152 -5.5416028e-16 1.1441202
0.18022988 -0.05 -0.053812896 -10.943312 -4.693392e-17 1.1970955
0.17627268 -0.05 -0.053382932 -11.091383 -4.8388668e-16 1.2515806
0.17237388 -0.05 -0.052946077 -11.236895 1.5023556e-16 1.3070648
0.16853268 -0.05 -0.052502511 -11.380642 6.5118815e-17 1.3639882
0.16474829 -0.05 -0.052052369 -11.522391 -2.5455887e-16 1.4221617
0.16101994 -0.05 -0.051595762 -11.660973 4.1947608e-16 1.4816597
0.15734687 -0.05 -0.051132795 -11.795053 -5.5318482e-16 1.5419493
0.15372831 -0.05 -0.050663665 -11.925945 1.9757127e-16 1.6034274
0.15016352 -0.05 -0.050188464 -12.052474 2.656468e-16 1.6661142
0.14665179 -0.05 -0.049707305 -12.173723 -1.4976624e-16 1.7295468
0.14319237 -0.05 -0.049220316 -12.289461 -2.1966472e-16 1.793996
0.13978456 -0.05 -0.048727564 -12.398766 -5.8541396e-16 1.8590801
0.13642769 -0.05 -0.048229185 -12.501786 -2.1778856e-16 1.9248266
0.13312104 -0.05 -0.047725271 -12.598095 -3.9652512e-16 1.9911112
0.12986395 -0.05 -0.047215967 -12.687984 -4.0084945e-16 2.0579093
0.12665574 -0.05 -0.04670136 -12.772812 2.0399313e-16 2.1259987
0.12349578 -0.05 -0.046181454 -12.855717 1.9645899e-17 2.1953395
0.12038342 -0.05 -0.04565641 -12.938017 -9.7668056e-17 2.2657939
0.117318 -0.05 -0.045126327 -13.013993 -7.9222232e-17 2.3369786
0.11429892 -0.05 -0.044591197 -13.079951 -5.3540523e-16 2.4083184
0.11132559 -0.05 -0.044051075 -13.134404 -3.3859535e-17 2.4797529
0.10839739 -0.05 -0.04350607 -13.178746 1.1542139e-16 2.5519842
0.10551373 -0.05 -0.042956194 -13.215173 -5.8399981e-16 2.6254096
0.10267404 -0.05 -0.042401518 -13.249401 -3.2618146e-16 2.7003413
0.099877725 -0.05 -0.041842179 -13.289521 7.7774495e-16 2.7793742
0.097124248 -0.05 -0.041278097 -13.33153 5.9617506e-16 2.8616294
0.094413069 -0.05 -0.040709307 -13.378299 7.7942369e-16 2.947264
0.09174363 -0.05 -0.040135932 -13.439212 5.1592255e-16 3.0386904
0.089115431 -0.05 -0.039557869 -13.504006 9.5387235e-16 3.1336009
0.086527949 -0.05 -0.038975164 -13.572284 1.9392686e-16 3.2318675
0.083980673 -0.05 -0.038387862 -13.646053 5.2906228e-16 3.3348421
0.081473107 -0.05 -0.037795973 -13.724886 -6.9156968e-16 3.4421494
0.079004763 -0.05 -0.037199518 -13.809891 3.0064396e-16 3.5551579
0.076575198 -0.05 -0.036598376 -13.898305 -8.2346298e-16 3.6727402
0.074183953 -0.05 -0.035992521 -13.988776 -4.2878135e-16 3.7943221
0.071830559 -0.05 -0.035382008 -14.080005 3.6256651e-16 3.9199374
0.069514573 -0.05 -0.034766837 -14.169458 1.3473411e-16 4.0499319
0.067235593 -0.05 -0.03414688 -14.25394 -2.2456309e-16 4.1834326
0.064993209 -0.05 -0.03352208 -14.332166 -2.2958239e-16 4.3199508
0.062787013 -0.05 -0.032892416 -14.403219 4.055182e-16 4.4599485
0.060616629 -0.05 -0.032257781 -14.464886 4.3645832e-17 4.6029312
0.058481694 -0.05 -0.031618077 -14.515743 -1.8724797e-16 4.7485205
0.056381846 -0.05 -0.030973226 -14.556785 -7.3856243e-16 4.896935
0.054316749 -0.05 -0.030323112 -14.588536 -2.7847427e-16 5.0480928
0.052286055 -0.05 -0.029667687 -14.610798 -9.603604e-17 5.2026352
0.050289481 -0.05 -0.029006749 -14.621983 3.8565165e-16 5.3599688
0.048326741 -0.05 -0.028340136 -14.620842 4.0854377e-17 5.5190844
0.046397537 -0.05 -0.02766777 -14.608443 -4.1375354e-16 5.6812752
0.044501621 -0.05 -0.026989456 -14.583378 1.0424495e-16 5.8461201
0.042638767 -0.05 -0.026305 -14.54467 -1.3316837e-16 6.013668
0.040808792 -0.05 -0.025614116 -14.490564 -5.8458411e-16 6.182926
0.039011505 -0.05 -0.024916603 -14.420494 -3.9594337e-16 6.3540084
0.037246715 -0.05 -0.024212304 -14.333419 -3.4119722e-16 6.5270241
0.035514301 -0.05 -0.023500927 -14.230154 -1.5324765e-16 6.7017537
0.033814174 -0.05 -0.022782159 -14.108193 -2.2633533e-16 6.8718006
0.032146271 -0.05 -0.022055685 -13.966643 -1.1138449e-15 7.0445735
0.030510553 -0.05 -0.021321187 -13.804064 -1.1885521e-16 7.21687
0.02890703 -0.05 -0.020578312 -13.619608 3.7346969e-16 7.3872645
0.027335774 -0.05 -0.019826629 -13.411638 -1.1829178e-15 7.5542578
0.025796869 -0.05 -0.019065762 -13.179704 3.8625947e-16 7.7172081
0.024290485 -0.05 -0.018295231 -12.921947 -9.5871928e-16 7.8738429
0.022816854 -0.05 -0.017514529 -12.637548 4.6821427e-16 8.0223973
0.021376256 -0.05 -0.016723156 -12.32629 2.954132e-16 8.1613107
0.0199691 -0.05 -0.015920502 -11.987316 5.7408808e-16 8.2876814
0.018595817 -0.05 -0.015106012 -11.619455 7.7918248e-16 8.4004714
0.017257008 -0.05 -0.014278984 -11.218486 8.7161342e-16 8.4953759
0.015953364 -0.05 -0.013438687 -10.78135 -2.8418107e-16 8.5690813
0.014685668 -0.05 -0.012584408 -10.307251 -1.9867583e-16 8.6155238
0.013454898 -0.05 -0.011715339 -9.7939736 -1.2813951e-15 8.6289246
0.012262211 -0.05 -0.010830665 -9.2402961 2.5888548e-16 8.6036261
0.011108962 -0.05 -0.0099295446 -8.6481191 6.6518067e-16 8.536258
0.0099967398 -0.05 -0.0090110425 -8.0212524 3.8913906e-16 8.4178386
0.0089273303 -0.05 -0.0080741719 -7.35892 2.3973603e-16 8.2437081
0.0079028283 -0.05 -0.0071181554 -6.6638239 9.5774503e-16 8.0032057
0.006925753 -0.05 -0.0061422472 -5.9423186 -6.6177733e-16 7.6849079
0.0059988743 -0.05 -0.0051454608 -5.203246 2.2488139e-16 7.2813524
0.0051252748 -0.05 -0.0041271803 -4.457633 -2.1087299e-16 6.7886002
0.0043086905 -0.05 -0.0030873757 -3.7194487 -2.6077235e-18 6.2023032
0.0035530027 -0.05 -0.0020258102 -3.0049743 2.4809881e-16 5.520705
0.0028622899 -0.05 -0.00094280699 -2.3305607 -3.5142401e-17 4.7477914
0.0022412409 -0.05 0.0001601465 -1.6937997 1.9669053e-17 3.8928885
0.0016943746 -0.05 0.0012814153 -1.1475014 -3.3151299e-16 2.9789259
0.0012259402 -0.05 0.0024183485 -0.70485082 3.7549128e-17 2.0222414
0.00083971856 -0.05 0.0035667725 -0.40712052 -1.0250423e-16 1.1319126
0.00053863185 -0.05 0.0047221807 -0.23122036 8.1862123e-17 0.4804204
0.00032424381 -0.05 0.0058792093 -0.14942475 1.2915343e-16 -0.099923937
0.00019642335 -0.05 0.0070318012 -0.10576921 3.9122217e-17 -0.71969346
0.00015346014 -0.05 0.0081739479 -0.14170967 -1.1126506e-18 -1.4595688
0.99642121 -0.05 -0.026565739 0.13926915 9.3816963e-16 -0.08108979
0.99018053 -0.05 -0.027243796 -0.041470491 9.5449572e-16 -0.0045992904
0.98393908 -0.05 -0.027914836 0.020726519 -3.867014e-16 0.00085187346
0.9776969 -0.05 -0.028578885 -0.006595863 1.6147126e-16 -0.0015756185
0.97145398 -0.05 -0.02923605 -0.0083119481 -2.2770141e-16 -0.0016902923
0.96521035 -0.05 -0.029886491 -0.018289352 4.8218775e-16 -0.0028394433
0.95896603 -0.05 -0.03053019 -0.024547538 -9.5381971e-17 -0.0033882301
0.95272103 -0.05 -0.031167211 -0.033493633 -1.0862118e-17 -0.0042508723
0.94647537 -0.05 -0.031797711 -0.042589417 -2.2246633e-16 -0.0050749551
0.94022905 -0.05 -0.032421774 -0.052566573 7.0688971e-16 -0.0059839381
0.9339821 -0.05 -0.033039406 -0.063365112 -4.0054592e-17 -0.0069262228
0.92773452 -0.05 -0.033650665 -0.074296936 1.6460924e-16 -0.0078690698
0.92148632 -0.05 -0.034255632 -0.085647918 2.1855684e-16 -0.0088557348
0.91523752 -0.05 -0.03485434 -0.097309044 4.3843806e-17 -0.0098473005
0.90898815 -0.05 -0.035446941 -0.10953809 -2.8062468e-16 -0.010853446
0.9027382 -0.05 -0.036033434 -0.12185102 7.9281418e-17 -0.011833024
0.89648768 -0.05 -0.036613849 -0.13429633 4.8542333e-17 -0.012834259
0.89023661 -0.05 -0.037188325 -0.14710747 3.7200946e-17 -0.013841834
0.88398499 -0.05 -0.037756873 -0.16025518 2.0174886e-17 -0.014849072
0.87773284 -0.05 -0.038319438 -0.17354575 4.8884699e-16 -0.015841953
0.87148017 -0.05 -0.038876158 -0.18703615 2.9703773e-16 -0.016842138
0.86522698 -0.05 -0.039427103 -0.20091504 2.3384832e-16 -0.017851376
0.85897329 -0.05 -0.039972242 -0.21512233 -3.7883884e-16 -0.018861617
0.85271909 -0.05 -0.040511664 -0.22963822 2.3770007e-16 -0.019903789
0.84646442 -0.05 -0.041045431 -0.24506097 1.254069e-16 -0.020965902
0.84020926 -0.05 -0.041573528 -0.26132437 3.63668e-16 -0.022053364
0.83395362 -0.05 -0.042095922 -0.27780332 3.3095353e-17 -0.023148354
0.82769753 -0.05 -0.042612787 -0.29469717 2.223643e-16 -0.024242872
0.82144097 -0.05 -0.043124084 -0.31198052 1.5142661e-16 -0.025344088
0.81518396 -0.05 -0.043629766 -0.32954865 1.9025623e-16 -0.026437671
0.8089265 -0.05 -0.044129912 -0.34756649 -1.2145992e-16 -0.027533353
0.80266861 -0.05 -0.044624534 -0.36594951 2.7748412e-16 -0.028626547
0.79641029 -0.05 -0.045113663 -0.38479541 4.2989197e-16 -0.029723652
0.79015153 -0.05 -0.045597254 -0.40402585 -7.9886561e-17 -0.030822142
0.78389235 -0.05 -0.046075393 -0.42374803 1.3821379e-16 -0.031919956
0.77763277 -0.05 -0.046548046 -0.44400622 2.0801504e-16 -0.033022595
0.77137276 -0.05 -0.047015181 -0.46464463 -3.942492e-17 -0.034119357
0.76511234 -0.05 -0.047476859 -0.48590816 -8.2307246e-17 -0.035226041
0.75885153 -0.05 -0.047933067 -0.50768695 -4.1786484e-16 -0.036327627
0.75259032 -0.05 -0.048383794 -0.53009337 3.413304e-17 -0.037437666
0.74632872 -0.05 -0.048829013 -0.55304176 3.645742e-16 -0.038541591
0.74006672 -0.05 -0.049268709 -0.57664458 5.7866498e-16 -0.039650235
0.73380435 -0.05 -0.049702867 -0.60089225 1.3682633e-16 -0.040754005
0.72754159 -0.05 -0.05013145 -0.62579162 -5.0457959e-17 -0.04186475
0.72127845 -0.05 -0.050554494 -0.65133494 4.0736215e-16 -0.04297507
0.71501494 -0.05 -0.050972027 -0.67777846 2.5804618e-17 -0.044087678
0.70875105 -0.05 -0.051383875 -0.70487341 -3.7126076e-18 -0.045187639
0.70248679 -0.05 -0.05179009 -0.73279182 1.7538263e-16 -0.046301714
0.69622217 -0.05 -0.052190638 -0.76168642 2.8121665e-16 -0.047401986
0.68995719 -0.05 -0.052585423 -0.79127826 -2.3600212e-16 -0.048511056
0.68369184 -0.05 -0.052974504 -0.82200198 -5.2535706e-17 -0.049618056
0.67742614 -0.05 -0.053357782 -0.85358928 -3.5207135e-16 -0.050718916
0.67116009 -0.05 -0.053735268 -0.88624508 2.7140523e-16 -0.051811947
0.66489369 -0.05 -0.054106845 -0.91997797 6.5049375e-17 -0.052886882
0.65862694 -0.05 -0.054472412 -0.95449676 2.460234e-16 -0.053953054
0.65235983 -0.05 -0.054832057 -0.99028278 -9.0247851e-17 -0.055022194
0.64609239 -0.05 -0.05518569 -1.0273403 -3.9807392e-16 -0.056056574
0.6398246 -0.05 -0.055533147 -1.0655211 -2.4995021e-16 -0.057073314
0.63355648 -0.05 -0.055874394 -1.1049089 -3.9770975e-17 -0.058076375
0.62728801 -0.05 -0.056209435 -1.1460486 2.4815592e-16 -0.059089663
0.62101921 -0.05 -0.056538131 -1.1893075 3.7503724e-17 -0.060131503
0.61475008 -0.05 -0.056860398 -1.2357943 -6.3938753e-18 -0.061342262
0.60848062 -0.05 -0.057176232 -1.2870505 -2.2431837e-16 -0.06270156
0.60221083 -0.05 -0.05748549 -1.3421986 -5.2226721e-16 -0.06403722
0.59594072 -0.05 -0.057788099 -1.3992632 -3.1811065e-17 -0.065237076
0.58967029 -0.05 -0.058083976 -1.4576749 2.8127384e-17 -0.066315465
0.58339953 -0.05 -0.058373029 -1.5172236 -4.8486794e-17 -0.067303538
0.57712846 -0.05 -0.058655142 -1.5782483 8.1690512e-17 -0.068186152
0.57085708 -0.05 -0.058930173 -1.6405726 -9.5078571e-17 -0.068946924
0.56458539 -0.05 -0.059198087 -1.7046895 1.7959758e-16 -0.069366115
0.55831339 -0.05 -0.059458762 -1.7702656 -8.3392757e-17 -0.069583924
0.55204109 -0.05 -0.059712036 -1.837323 -1.4843854e-16 -0.069947686
0.5457685 -0.05 -0.05995784 -1.906469 -5.4641323e-17 -0.070289531
0.53949561 -0.05 -0.060196009 -1.9778107 2.5073285e-16 -0.070485979
0.53322243 -0.05 -0.060426405 -2.0510364 -1.4713613e-16 -0.070557006
0.52694896 -0.05 -0.060648957 -2.1266955 -3.7454718e-17 -0.070475024
0.52067521 -0.05 -0.060863492 -2.2045331 -2.6919653e-18 -0.070209069
0.5144012 -0.05 -0.06106987 -2.2846675 5.3792251e-17 -0.069769218
0.50812692 -0.05 -0.061267923 -2.3670677 5.3675248e-17 -0.069114288
0.50185237 -0.05 -0.061457512 -2.4520115 -1.1123858e-16 -0.068277577
0.49557757 -0.05 -0.061638515 -2.5396245 -9.5793561e-17 -0.067191134
0.48930252 -0.05 -0.061810733 -2.6297349 4.2992466e-17 -0.065855185
0.48302723 -0.05 -0.061973963 -2.7222115 4.9036034e-17 -0.064238692
0.47675171 -0.05 -0.062128082 -2.8173647 8.0183889e-17 -0.062381198
0.47047597 -0.05 -0.062272952 -2.9153535 4.5590721e-17 -0.060180957
0.46420003 -0.05 -0.062408322 -3.0160473 -6.2967607e-17 -0.057633035
0.45792387 -0.05 -0.062533978 -3.1194443 -4.395528e-17 -0.054738054
0.45164753 -0.05 -0.062649757 -3.2258877 -1.0383449e-17 -0.051503527
0.44537101 -0.05 -0.062755477 -3.3351546 4.3471303e-17 -0.047827566
0.43909433 -0.05 -0.062850912 -3.4473631 9.8822025e-17 -0.043713068
0.43281749 -0.05 -0.062935823 -3.5623432 8.9860521e-17 -0.039122242
0.42654052 -0.05 -0.063009997 -3.6803811 2.3542852e-17 -0.03406344
0.42026342 -0.05 -0.063073239 -3.8016558 5.6458883e-18 -0.028477293
0.41398623 -0.05 -0.063125299 -3.9261823 1.3407615e-17 -0.02242805
0.40770895 -0.05 -0.063165899 -4.0536391 1.0510797e-17 -0.015860942
0.40143162 -0.05 -0.063194815 -4.1844361 1.0549022e-17 -0.0081728674
0.39515422 -0.05 -0.063211762 -4.3184387 -9.4073759e-18 -6.4953628e-05
0.38887682 -0.05 -0.063216433 -4.4552742 -1.3423963e-19 0.0088529246
0.38259942 -0.05 -0.063208611 -4.5956017 2.441322e-18 0.018753163
0.37632204 -0.05 -0.063188059 -4.7399383 -1.0726576e-17 0.028863459
0.37004473 -0.05 -0.063154377 -4.8873423 1.5782529e-17 0.040037393
0.3637675 -0.05 -0.063107246 -5.0375844 5.8507128e-18 0.052175951
0.35749039 -0.05 -0.063046426 -5.1914287 -3.3402731e-17 0.065297883
0.35121342 -0.05 -0.06297158 -5.3490841 4.1936997e-17 0.079434442
0.34493664 -0.05 -0.062882355 -5.5102866 -8.010299e-18 0.094708195
0.3386601 -0.05 -0.062778361 -5.6744542 -5.3555097e-18 0.11110208
0.33238382 -0.05 -0.062659273 -5.8417516 1.8605626e-16 0.12867725
0.32610786 -0.05 -0.0625247 -6.0127648 -1.065394e-16 0.14758355
0.31983226 -0.05 -0.062374219 -6.186443 -1.8717453e-16 0.1678101
0.31355706 -0.05 -0.062207442 -6.362481 -2.814796e-16 0.18952848
0.30728234 -0.05 -0.062023956 -6.5447145 6.4613352e-17 0.2131448
0.30100814 -0.05 -0.061823329 -6.7865268 -1.7808847e-16 0.23980018
0.29923024 -0.05 0.0583182 -7.1691817 -6.9560676e-17 0.24256421
0.29359599 -0.05 0.058501892 -7.1521886 1.9793795e-16 0.22241975
0.2880424 -0.05 0.058668378 -7.0883104 -9.5905075e-17 0.20186508
0.28256833 -0.05 0.058817908 -7.0303917 -1.8164337e-16 0.18144811
0.27717269 -0.05 0.058950788 -6.9748504 -1.5003416e-17 0.16128522
0.27185438 -0.05 0.059067354 -6.9224049 2.0004668e-17 0.1412577
0.26661232 -0.05 0.059167917 -6.8726044 -1.3885912e-16 0.1214379
0.26144548 -0.05 0.059252763 -6.8255113 2.0174216e-17 0.10181015
0.2563528 -0.05 0.059322214 -6.7811909 6.1781112e-17 0.082778106
0.25133325 -0.05 0.059376555 -6.7396416 -2.2316981e-17 0.063894398
0.24638582 -0.05 0.059416004 -6.6999507 -7.0778863e-18 0.043966724
0.24150953 -0.05 0.059440876 -6.6625023 -1.6834979e-17 0.023549652
0.23670337 -0.05 0.059451448 -6.6266087 2.9077644e-18 0.0038858387
0.23196639 -0.05 0.05944802 -6.5920055 -7.1179705e-19 -0.016184188
0.22729762 -0.05 0.059430867 -6.5596902 2.7980834e-18 -0.036609465
0.22269614 -0.05 0.059400195 -6.5294776 -2.1791004e-17 -0.054901722
0.218161 -0.05 0.059356302 -6.5013358 3.8437067e-18 -0.073706789
0.21369129 -0.05 0.059299444 -6.4756891 -6.6274834e-17 -0.093133552
0.20928612 -0.05 0.059229785 -6.4515477 6.5902111e-17 -0.11283815
0.20494461 -0.05 0.059147621 -6.429353 -1.6307258e-17 -0.13256759
0.20066586 -0.05 0.059053198 -6.4092812 7.4865788e-17 -0.15244102
0.19644902 -0.05 0.058946779 -6.3915145 2.4041711e-17 -0.17242022
0.19229323 -0.05 0.058828597 -6.3763323 -1.0844239e-16 -0.19275624
0.18819767 -0.05 0.058698767 -6.362664 -2.4308669e-18 -0.21325209
0.18416151 -0.05 0.058557571 -6.3508271 2.0401434e-17 -0.23383503
0.18018393 -0.05 0.058405229 -6.3411173 2.1454376e-16 -0.25479867
0.17626412 -0.05 0.05824193 -6.3327678 1.5613678e-16 -0.27585805
0.17240132 -0.05 0.058067912 -6.3265634 2.849796e-17 -0.29729512
0.16859473 -0.05 0.057883364 -6.322103 -5.0238222e-17 -0.31902727
0.16484358 -0.05 0.05768845 -6.3193347 -2.347848e-17 -0.3411974
0.16114713 -0.05 0.057483327 -6.3176804 1.1958751e-16 -0.36355907
0.15750463 -0.05 0.057268247 -6.3179652 -9.9348006e-17 -0.38632662
0.15391535 -0.05 0.057043352 -6.3201569 -3.3796492e-16 -0.40961137
0.15037857 -0.05 0.056808808 -6.3241297 1.8680425e-16 -0.43324888
0.14689357 -0.05 0.056564789 -6.3301669 2.4784591e-16 -0.45751968
0.14345967 -0.05 0.056311416 -6.3375221 1.1551167e-16 -0.482223
0.14007617 -0.05 0.056048869 -6.3463566 3.1483277e-17 -0.50741778
0.13674239 -0.05 0.05577729 -6.3567008 -1.0076112e-16 -0.53315787
0.13345767 -0.05 0.055496871 -6.3688778 9.0379936e-17 -0.55950584
0.13022134 -0.05 0.055207745 -6.3829443 -5.4990559e-17 -0.58670033
0.12703277 -0.05 0.054909962 -6.397528 -5.9918089e-16 -0.61427321
0.12389132 -0.05 0.054603727 -6.4136851 -6.513988e-16 -0.6424469
0.12079635 -0.05 0.054289183 -6.4320969 -4.4420965e-16 -0.6716907
0.11774726 -0.05 0.053966366 -6.4515587 -8.9945752e-17 -0.70170236
0.11474344 -0.05 0.053635372 -6.4719844 2.8293072e-16 -0.73241101
0.11178431 -0.05 0.053296354 -6.4937957 -3.1883993e-16 -0.76400644
0.10886927 -0.05 0.052949362 -6.5169214 2.5338016e-16 -0.79650568
0.10599776 -0.05 0.05259451 -6.541075 -5.2777375e-17 -0.82967372
0.10316919 -0.05 0.052231974 -6.5676291 -5.3759382e-16 -0.86425286
0.10038302 -0.05 0.051861714 -6.5953721 3.8529051e-17 -0.89987464
0.097638722 -0.05 0.0514838 -6.6242928 -2.5664619e-16 -0.93634807
0.094935736 -0.05 0.051098395 -6.6558027 -3.5403823e-16 -0.97447406
0.092273563 -0.05 0.050705432 -6.6881475 -3.8664512e-16 -1.0137177
0.089651683 -0.05 0.050304992 -6.720504 -1.5091752e-16 -1.0538234
0.087069589 -0.05 0.049897157 -6.7539925 5.2644249e-16 -1.0953644
0.084526788 -0.05 0.049481969 -6.7874717 -1.1927574e-16 -1.1380186
0.082022793 -0.05 0.049059486 -6.8224152 1.1952745e-16 -1.1826277
0.079557154 -0.05 0.048629618 -6.8572236 -4.6604628e-17 -1.2284849
0.077129413 -0.05 0.04819237 -6.8926474 -2.8671658e-16 -1.2756444
0.074739106 -0.05 0.04774783 -6.9301593 -3.0217958e-16 -1.3247686
0.072385788 -0.05 0.047296028 -6.970534 -5.5012315e-16 -1.3765107
0.070069052 -0.05 0.046836866 -7.0122555 5.9874977e-16 -1.4302855
0.067788485 -0.05 0.046370314 -7.0543779 1.6227428e-17 -1.4857768
0.065543675 -0.05 0.045896382 -7.0971793 8.0835493e-16 -1.5434064
0.063334245 -0.05 0.045414989 -7.1399916 1.9088171e-16 -1.602961
0.06115982 -0.05 0.044926061 -7.182526 -1.9148526e-16 -1.6646463
0.059020038 -0.05 0.044429546 -7.2253321 4.4363499e-16 -1.7290528
0.056914555 -0.05 0.043925352 -7.2686492 2.8222468e-16 -1.7962217
0.054843018 -0.05 0.043413456 -7.3120111 -2.5848204e-17 -1.8665518
0.052805133 -0.05 0.042893675 -7.3548518 -1.5530091e-16 -1.9396965
0.050800603 -0.05 0.04236587 -7.3957222 -7.99392e-16 -2.0148068
0.048829124 -0.05 0.04182998 -7.4377875 -2.8629558e-16 -2.0937195
0.046890437 -0.05 0.041285832 -7.4809249 2.7860057e-16 -2.1769906
0.044984301 -0.05 0.040733245 -7.5271503 2.5695937e-16 -2.266121
0.043110515 -0.05 0.040171948 -7.5747322 -5.3140947e-16 -2.360013
0.041268874 -0.05 0.039601754 -7.6212706 6.348058e-16 -2.4575482
0.039459175 -0.05 0.03902252 -7.6657149 7.796268e-17 -2.5592687
0.037681279 -0.05 0.038433961 -7.7066563 -8.9550157e-17 -2.6650352
0.035935074 -0.05 0.037835773 -7.7431825 -9.1837194e-16 -2.7758467
0.034220476 -0.05 0.037227646 -7.7788885 1.5149052e-16 -2.8947923
0.032537425 -0.05 0.036609265 -7.812978 -5.03419e-16 -3.0215103
0.030885902 -0.05 0.035980277 -7.8423675 4.948688e-17 -3.1538573
0.029265952 -0.05 0.035340248 -7.8653399 8.7533545e-16 -3.2912404
0.027677633 -0.05 0.034688797 -7.8866558 8.2522636e-17 -3.4355374
0.02612108 -0.05 0.034025432 -7.9094501 -6.3920972e-16 -3.5903489
0.024596489 -0.05 0.033349632 -7.9354688 -8.1542007e-16 -3.7576459
0.023104106 -0.05 0.032660879 -7.94714 -3.5132563e-16 -3.930781
0.021644293 -0.05 0.031958533 -7.9266668 2.7726904e-16 -4.1049926
0.020217441 -0.05 0.031242014 -7.861921 8.2384017e-16 -4.2827788
0.018824105 -0.05 0.030510578 -7.7427741 -7.7564883e-16 -4.469145
0.01746492 -0.05 0.029763449 -7.5702288 -2.6439294e-16 -4.674375
0.016140618 -0.05 0.028999858 -7.375896 1.08325e-15 -4.9107902
0.014852118 -0.05 0.028218934 -7.1775061 2.138332e-17 -5.1859327
0.013600518 -0.05 0.027419781 -6.9774941 -6.8338337e-16 -5.5185447
0.012387109 -0.05 0.026601465 -6.7904281 4.0897363e-16 -5.9279661
0.011213412 -0.05 0.025762943 -6.6196279 -2.0511622e-16 -6.4117126
0.010081139 -0.05 0.024903105 -6.4760106 8.4339368e-16 -6.9464135
0.0089923262 -0.05 0.024021029 -6.4121126 -6.5512333e-16 -7.5247168
0.0079494334 -0.05 0.023115795 -6.3994169 -2.8741925e-16 -8.1176966
0.0069551555 -0.05 0.022186226 -6.3418259 6.3033411e-18 -8.6585282
0.0060125241 -0.05 0.021231491 -6.1673164 -4.6966889e-16 -9.0980105
0.0051252641 -0.05 0.020251301 -5.8480267 -4.7189977e-16 -9.4047637
0.0042972309 -0.05 0.019245148 -5.3637691 9.6468903e-18 -9.5199559
0.0035325156 -0.05 0.018213066 -4.7552863 2.1776611e-16 -9.4514051
0.0028358994 -0.05 0.017156216 -4.0586352 1.5938793e-16 -9.1746644
0.0022120043 -0.05 0.01607591 -3.3195006 -5.7566679e-18 -8.6809603
0.0016652546 -0.05 0.014974495 -2.5727031 2.2800274e-16 -7.9688811
0.0011997136 -0.05 0.013855873 -1.8610819 1.9039749e-17 -7.0616502
0.00081861117 -0.05 0.012724333 -1.2282271 5.4403486e-17 -6.0081694
0.00052388213 -0.05 0.011585118 -0.75174998 -1.9535769e-17 -4.8667284
0.00031581907 -0.05 0.010444278 -0.4221206 1.1480399e-16 -3.681512
0.00019313577 -0.05 0.0093079265 -0.22830384 8.4110886e-17 -2.5239283
0.99645266 -0.05 -0.025666936 -28.94268 -7.6263195e-16 4.9170927
0.99027463 -0.05 -0.024554371 -26.670006 -4.8001797e-16 4.7312991
0.98409535 -0.05 -0.023448755 -26.684989 9.5523648e-16 4.7441097
0.97791483 -0.05 -0.022350061 -26.952096 -1.294425e-15 4.7590767
0.97173311 -0.05 -0.021258182 -27.097628 -5.3526435e-16 4.7562947
0.96555022 -0.05 -0.020172963 -27.215474 -7.2111669e-16 4.7479093
0.95936615 -0.05 -0.01909442 -27.295918 5.8809128e-16 4.7326682
0.95318094 -0.05 -0.018022489 -27.348994 -1.0128209e-15 4.7131636
0.94699461 -0.05 -0.016957019 -27.37713 -1.5923507e-17 4.6892461
0.94080719 -0.05 -0.015897925 -27.382107 1.3279853e-15 4.6617593
0.93461868 -0.05 -0.014845201 -27.370303 1.0451442e-15 4.6309891
0.9284291 -0.05 -0.01379879 -27.340932 8.4184161e-16 4.5980409
0.92223846 -0.05 -0.012758614 -27.300868 8.8012214e-17 4.5630837
0.91604679 -0.05 -0.011724639 -27.24732 1.1169626e-15 4.5266718
0.90985411 -0.05 -0.010696715 -27.183639 3.676695e-17 4.4887815
0.90366043 -0.05 -0.0096748439 -27.10324 -5.1050636e-16 4.4484941
0.89746577 -0.05 -0.0086589965 -27.011471 3.7920145e-16 4.40701
0.89127014 -0.05 -0.0076490363 -26.904267 -2.4095237e-16 4.3635899
0.88507355 -0.05 -0.00664495 -26.784792 3.8979994e-16 4.3181455
0.87887599 -0.05 -0.0056467944 -26.650234 1.4956515e-15 4.2708505
0.87267752 -0.05 -0.0046544329 -26.509075 2.946716e-16 4.2231746
0.86647812 -0.05 -0.0036677978 -26.361586 1.6684002e-15 4.1744941
0.86027783 -0.05 -0.0026869179 -26.211788 5.2891668e-16 4.1258886
0.85407663 -0.05 -0.0017117073 -26.056943 -2.3510624e-16 4.0771786
0.84787455 -0.05 -0.00074210369 -25.903183 -5.0869306e-16 4.0289317
0.84167159 -0.05 0.00022187895 -25.747285 1.0012694e-15 3.9806459
0.83546776 -0.05 0.0011802044 -25.590203 1.0245884e-15 3.9327127
0.82926309 -0.05 0.002133047 -25.428889 7.9871716e-17 3.8850567
0.82305757 -0.05 0.0030803668 -25.263628 -7.2630004e-16 3.8365255
0.81685121 -0.05 0.0040221173 -25.090038 2.1051635e-16 3.7877661
0.81064401 -0.05 0.0049583774 -24.90728 -1.1809861e-15 3.7377269
0.80443598 -0.05 0.0058891567 -24.711599 8.5779518e-16 3.6865051
0.79822715 -0.05 0.0068144864 -24.508009 -1.285427e-15 3.6341149
0.79201749 -0.05 0.0077343215 -24.297346 9.021194e-16 3.5811195
0.78580704 -0.05 0.008648748 -24.084841 -1.4287212e-15 3.5282326
0.77959579 -0.05 0.0095577308 -23.870077 1.2544512e-15 3.4751692
0.77338374 -0.05 0.010461238 -23.655813 -1.2692714e-15 3.4227869
0.76717091 -0.05 0.01135933 -23.441385 -1.9209892e-16 3.3707254
0.76095728 -0.05 0.012251994 -23.227634 -3.0532671e-16 3.3190873
0.75474289 -0.05 0.013139218 -23.012144 1.9112031e-17 3.2676816
0.74852772 -0.05 0.014020975 -22.795637 3.3396339e-16 3.2165226
0.74231176 -0.05 0.014897249 -22.575216 1.2018996e-15 3.1653442
0.73609505 -0.05 0.015768025 -22.34844 -6.6083437e-16 3.11371
0.72987755 -0.05 0.016633267 -22.109807 3.9582116e-17 3.0609698
0.72365929 -0.05 0.01749301 -21.858328 -1.6390747e-16 3.0069295
0.71744028 -0.05 0.018347282 -21.593677 2.6354922e-17 2.9511088
0.7112205 -0.05 0.019195909 -21.320762 -8.8072779e-16 2.8941017
0.70499995 -0.05 0.020038942 -21.046935 1.7102026e-15 2.8377529
0.69877864 -0.05 0.020876346 -20.77665 -2.520412e-16 2.7816683
0.69255657 -0.05 0.021708029 -20.508555 9.9929311e-16 2.7267341
0.68633374 -0.05 0.022534047 -20.243705 3.6453305e-16 2.6724344
0.68011015 -0.05 0.0233543 -19.981735 2.0443085e-15 2.6189935
0.6738858 -0.05 0.0241688 -19.723558 1.5137238e-15 2.5664521
0.66766069 -0.05 0.02497743 -19.466252 -6.1771006e-16 2.5142748
0.66143481 -0.05 0.025780091 -19.205881 1.166456e-15 2.4625237
0.65520817 -0.05 0.026576866 -18.936402 -3.5584353e-16 2.4102822
0.64898077 -0.05 0.027367669 -18.65177 -3.0809727e-16 2.3562797
0.6427526 -0.05 0.028152335 -18.347784 -6.3491051e-16 2.3001773
0.63652364 -0.05 0.02893083 -18.032307 6.5399493e-16 2.2429032
0.63029392 -0.05 0.029703156 -17.716456 -1.2035139e-15 2.1859438
0.62406342 -0.05 0.030469178 -17.402331 -8.0760173e-16 2.1295472
0.61783215 -0.05 0.03122881 -17.089646 1.8291711e-15 2.0743037
0.61160009 -0.05 0.031982047 -16.779424 1.0323705e-15 2.0197247
0.60536725 -0.05 0.032728748 -16.471508 7.6856368e-16 1.9656445
0.59913362 -0.05 0.033468838 -16.167509 4.1359015e-16 1.9124277
0.59289919 -0.05 0.034202234 -15.867965 -1.2388598e-16 1.8598343
0.58666398 -0.05 0.034928846 -15.574242 6.3619642e-16 1.8081258
0.58042796 -0.05 0.035648557 -15.28283 3.173533e-16 1.7568821
0.57419114 -0.05 0.036361225 -14.994183 -8.3159867e-16 1.706444
0.5679535 -0.05 0.037066815 -14.709376 -2.3940263e-16 1.6569447
0.56171507 -0.05 0.037765204 -14.427691 -1.14593e-15 1.6079463
0.55547581 -0.05 0.038456234 -14.148296 -9.3694875e-16 1.559201
0.54923573 -0.05 0.039139831 -13.872014 -7.877156e-16 1.511288
0.54299482 -0.05 0.039815832 -13.597866 -1.9704073e-16 1.464013
0.53675308 -0.05 0.0404841 -13.325722 -6.7595025e-16 1.4176217
0.53051051 -0.05 0.041144563 -13.055833 -3.3951121e-16 1.3720281
0.52426711 -0.05 0.04179705 -12.790287 -9.1076163e-16 1.3274477
0.51802286 -0.05 0.042441417 -12.531425 -3.5768959e-16 1.2839856
0.51177775 -0.05 0.043077497 -12.28123 4.4485169e-16 1.2417413
0.50553179 -0.05 0.043705154 -12.034998 -5.3458012e-16 1.2004758
0.499285 -0.05 0.044324262 -11.798555 -9.1117207e-16 1.1604157
0.49303733 -0.05 0.044934625 -11.570649 -4.4900701e-16 1.1213703
0.48678879 -0.05 0.04553604 -11.351607 9.416843e-16 1.0835053
0.48053939 -0.05 0.04612838 -11.142123 -5.1545725e-16 1.046998
0.47428913 -0.05 0.04671151 -10.942623 1.7069509e-16 1.0116919
0.46803798 -0.05 0.047285178 -10.751299 4.3253235e-18 0.97741221
0.46178596 -0.05 0.047849169 -10.566421 2.0404439e-17 0.94403734
0.45553306 -0.05 0.048403322 -10.387149 -6.4924332e-16 0.91145711
0.44927927 -0.05 0.048947452 -10.213315 7.8370264e-16 0.87956013
0.44302461 -0.05 0.049481335 -10.044376 -6.665965e-16 0.84827052
0.43676906 -0.05 0.050004727 -9.8801004 3.3844019e-16 0.81757144
0.43051262 -0.05 0.050517421 -9.7202263 6.1812875e-16 0.78747657
0.42425529 -0.05 0.051019218 -9.5650392 -4.8036244e-16 0.75794594
0.41799708 -0.05 0.051509866 -9.4140577 4.3816302e-16 0.72887705
0.411738 -0.05 0.051989088 -9.2670497 7.7550757e-16 0.70028421
0.40547803 -0.05 0.052456659 -9.1239686 -2.4456689e-16 0.6721835
0.39921718 -0.05 0.052912295 -8.984865 1.5262082e-16 0.64443842
0.39295545 -0.05 0.053355685 -8.8490717 -1.523563e-16 0.6171345
0.38669285 -0.05 0.053786613 -8.717078 -2.2989388e-16 0.59029903
0.38042938 -0.05 0.054204839 -8.5888931 -8.9194059e-17 0.56379687
0.37416506 -0.05 0.054609964 -8.46413 -7.7231042e-17 0.53750864
0.36789989 -0.05 0.055001667 -8.3423375 3.7519956e-16 0.51166393
0.36163388 -0.05 0.055379706 -8.2241018 -4.4893063e-16 0.48611046
0.35536703 -0.05 0.055743742 -8.1091906 6.0767801e-17 0.46084585
0.34909938 -0.05 0.056093422 -7.9977273 6.3887228e-16 0.43581124
0.34283091 -0.05 0.056428354 -7.8892391 9.1031346e-16 0.4109938
0.33656165 -0.05 0.056748208 -7.7840625 3.4600887e-16 0.38644069
0.33029163 -0.05 0.057052594 -7.6820531 -3.1354907e-17 0.36200138
0.32402085 -0.05 0.057341085 -7.5828592 1.3186048e-16 0.33778915
0.31774936 -0.05 0.057613293 -7.4873236 -5.0025448e-17 0.31379198
0.31147715 -0.05 0.057868799 -7.3961221 6.8214038e-17 0.29001634
0.30520427 -0.05 0.058107169 -7.253277 2.544729e-16 0.26349132
