# yPlus  FACE_DATA 448
# x y z  yPlus
0.29503397 -0.05 -0.061616316 22.876068
0.28940067 -0.05 -0.061405779 22.855507
0.28384902 -0.05 -0.061183714 23.040802
0.27837789 -0.05 -0.060950294 23.209697
0.27298615 -0.05 -0.060705745 23.377929
0.2676727 -0.05 -0.060450327 23.544569
0.26243643 -0.05 -0.060184275 23.708572
0.25727629 -0.05 -0.059907799 23.869914
0.25219121 -0.05 -0.059621152 24.027838
0.24718014 -0.05 -0.059324541 24.183872
0.24224205 -0.05 -0.059018115 24.337483
0.23737594 -0.05 -0.05870212 24.489845
0.23258079 -0.05 -0.058376763 24.639047
0.22785564 -0.05 -0.058042273 24.783891
0.22319949 -0.05 -0.05769886 24.926094
0.2186114 -0.05 -0.057346663 25.064671
0.21409042 -0.05 -0.056985914 25.199601
0.20963562 -0.05 -0.056616806 25.332465
0.20524609 -0.05 -0.056239438 25.46088
0.20092093 -0.05 -0.055854044 25.585933
0.19665924 -0.05 -0.055460809 25.709105
0.19246014 -0.05 -0.055059932 25.830533
0.18832278 -0.05 -0.05465159 25.950755
0.18424631 -0.05 -0.054235837 26.068029
0.18022988 -0.05 -0.053812896 26.182407
0.17627268 -0.05 -0.053382932 26.294682
0.17237388 -0.05 -0.052946077 26.403876
0.16853268 -0.05 -0.052502511 26.511478
0.16474829 -0.05 -0.052052369 26.616796
0.16101994 -0.05 -0.051595762 26.719271
0.15734687 -0.05 -0.051132795 26.816811
0.15372831 -0.05 -0.050663665 26.911183
0.15016352 -0.05 -0.050188464 27.001669
0.14665179 -0.05 -0.049707305 27.086672
0.14319237 -0.05 -0.049220316 27.166367
0.13978456 -0.05 -0.048727564 27.239683
0.13642769 -0.05 -0.048229185 27.306696
0.13312104 -0.05 -0.047725271 27.3678
0.12986395 -0.05 -0.047215967 27.422363
0.12665574 -0.05 -0.04670136 27.472397
0.12349578 -0.05 -0.046181454 27.522208
0.12038342 -0.05 -0.04565641 27.571976
0.117318 -0.05 -0.045126327 27.616087
0.11429892 -0.05 -0.044591197 27.650724
0.11132559 -0.05 -0.044051075 27.674278
0.10839739 -0.05 -0.04350607 27.688521
0.10551373 -0.05 -0.042956194 27.696517
0.10267404 -0.05 -0.042401518 27.7022
0.099877725 -0.05 -0.041842179 27.715583
0.097124248 -0.05 -0.041278097 27.73341
0.094413069 -0.05 -0.040709307 27.75642
0.09174363 -0.05 -0.040135932 27.795511
0.089115431 -0.05 -0.039557869 27.841105
0.086527949 -0.05 -0.038975164 27.890006
0.083980673 -0.05 -0.038387862 27.946776
0.081473107 -0.05 -0.037795973 28.008728
0.079004763 -0.05 -0.037199518 28.07942
0.076575198 -0.05 -0.036598376 28.155209
0.074183953 -0.05 -0.035992521 28.234079
0.071830559 -0.05 -0.035382008 28.314013
0.069514573 -0.05 -0.034766837 28.393889
0.067235593 -0.05 -0.03414688 28.471315
0.064993209 -0.05 -0.03352208 28.543481
0.062787013 -0.05 -0.032892416 28.610702
0.060616629 -0.05 -0.032257781 28.671407
0.058481694 -0.05 -0.031618077 28.723908
0.056381846 -0.05 -0.030973226 28.769258
0.054316749 -0.05 -0.030323112 28.808704
0.052286055 -0.05 -0.029667687 28.840897
0.050289481 -0.05 -0.029006749 28.868737
0.048326741 -0.05 -0.028340136 28.886024
0.046397537 -0.05 -0.02766777 28.897898
0.044501621 -0.05 -0.026989456 28.901804
0.042638767 -0.05 -0.026305 28.899182
0.040808792 -0.05 -0.025614116 28.888583
0.039011505 -0.05 -0.024916603 28.868037
0.037246715 -0.05 -0.024212304 28.835069
0.035514301 -0.05 -0.023500927 28.799462
0.033814174 -0.05 -0.022782159 28.752651
0.032146271 -0.05 -0.022055685 28.695611
0.030510553 -0.05 -0.021321187 28.626904
0.02890703 -0.05 -0.020578312 28.549428
0.027335774 -0.05 -0.019826629 28.460415
0.025796869 -0.05 -0.019065762 28.359648
0.024290485 -0.05 -0.018295231 28.247534
0.022816854 -0.05 -0.017514529 28.121571
0.021376256 -0.05 -0.016723156 27.983245
0.0199691 -0.05 -0.015920502 27.832048
0.018595817 -0.05 -0.015106012 27.662984
0.017257008 -0.05 -0.014278984 27.478356
0.015953364 -0.05 -0.013438687 27.268131
0.014685668 -0.05 -0.012584408 27.033631
0.013454898 -0.05 -0.011715339 26.764686
0.012262211 -0.05 -0.010830665 26.45864
0.011108962 -0.05 -0.0099295446 26.108955
0.0099967398 -0.05 -0.0090110425 25.714335
0.0089273303 -0.05 -0.0080741719 25.25965
0.0079028283 -0.05 -0.0071181554 24.731363
0.006925753 -0.05 -0.0061422472 24.111909
0.0059988743 -0.05 -0.0051454608 23.386627
0.0051252748 -0.05 -0.0041271803 22.527922
0.0043086905 -0.05 -0.0030873757 21.5143
0.0035530027 -0.05 -0.0020258102 20.307554
0.0028622899 -0.05 -0.00094280699 18.865337
0.0022412409 -0.05 0.0001601465 17.119548
0.0016943746 -0.05 0.0012814153 15.028779
0.0012259402 -0.05 0.0024183485 12.443699
0.00083971856 -0.05 0.0035667725 9.3801613
0.00053863185 -0.05 0.0047221807 6.2118171
0.00032424381 -0.05 0.0058792093 2.9560472
0.00019642335 -0.05 0.0070318012 7.3214323
0.00015346014 -0.05 0.0081739479 10.427165
0.99642121 -0.05 -0.026565739 2.8584084
0.99018053 -0.05 -0.027243796 1.7661021
0.98393908 -0.05 -0.027914836 1.2375922
0.9776969 -0.05 -0.028578885 0.70704729
0.97145398 -0.05 -0.02923605 0.79071921
0.96521035 -0.05 -0.029886491 1.1685288
0.95896603 -0.05 -0.03053019 1.3528349
0.95272103 -0.05 -0.031167211 1.5788991
0.94647537 -0.05 -0.031797711 1.7801376
0.94022905 -0.05 -0.032421774 1.9768507
0.9339821 -0.05 -0.033039406 2.1701722
0.92773452 -0.05 -0.033650665 2.3501428
0.92148632 -0.05 -0.034255632 2.5224641
0.91523752 -0.05 -0.03485434 2.6886833
0.90898815 -0.05 -0.035446941 2.8524687
0.9027382 -0.05 -0.036033434 3.0092225
0.89648768 -0.05 -0.036613849 3.1587975
0.89023661 -0.05 -0.037188325 3.3059931
0.88398499 -0.05 -0.037756873 3.4505437
0.87773284 -0.05 -0.038319438 3.5909762
0.87148017 -0.05 -0.038876158 3.7278675
0.86522698 -0.05 -0.039427103 3.8637361
0.85897329 -0.05 -0.039972242 3.9983023
0.85271909 -0.05 -0.040511664 4.1314254
0.84646442 -0.05 -0.041045431 4.2678539
0.84020926 -0.05 -0.041573528 4.4071585
0.83395362 -0.05 -0.042095922 4.5440503
0.82769753 -0.05 -0.042612787 4.6801759
0.82144097 -0.05 -0.043124084 4.8155275
0.81518396 -0.05 -0.043629766 4.9492749
0.8089265 -0.05 -0.044129912 5.0829754
0.80266861 -0.05 -0.044624534 5.2156725
0.79641029 -0.05 -0.045113663 5.3484273
0.79015153 -0.05 -0.045597254 5.4804168
0.78389235 -0.05 -0.046075393 5.6126838
0.77763277 -0.05 -0.046548046 5.7452477
0.77137276 -0.05 -0.047015181 5.8773741
0.76511234 -0.05 -0.047476859 6.0103312
0.75885153 -0.05 -0.047933067 6.1436544
0.75259032 -0.05 -0.048383794 6.2777027
0.74632872 -0.05 -0.048829013 6.4122799
0.74006672 -0.05 -0.049268709 6.5476506
0.73380435 -0.05 -0.049702867 6.6839838
0.72754159 -0.05 -0.05013145 6.8210285
0.72127845 -0.05 -0.050554494 6.9589747
0.71501494 -0.05 -0.050972027 7.0988413
0.70875105 -0.05 -0.051383875 7.2394621
0.70248679 -0.05 -0.05179009 7.381385
0.69622217 -0.05 -0.052190638 7.5256792
0.68995719 -0.05 -0.052585423 7.6704478
0.68369184 -0.05 -0.052974504 7.8180266
0.67742614 -0.05 -0.053357782 7.9668178
0.67116009 -0.05 -0.053735268 8.1178361
0.66489369 -0.05 -0.054106845 8.2708402
0.65862694 -0.05 -0.054472412 8.4245837
0.65235983 -0.05 -0.054832057 8.580989
0.64609239 -0.05 -0.05518569 8.7402327
0.6398246 -0.05 -0.055533147 8.9011901
0.63355648 -0.05 -0.055874394 9.0643973
0.62728801 -0.05 -0.056209435 9.2316111
0.62101921 -0.05 -0.056538131 9.4044818
0.61475008 -0.05 -0.056860398 9.5865828
0.60848062 -0.05 -0.057176232 9.783491
0.60221083 -0.05 -0.05748549 9.9909423
0.59594072 -0.05 -0.057788099 10.201279
0.58967029 -0.05 -0.058083976 10.412103
0.58339953 -0.05 -0.058373029 10.622848
0.57712846 -0.05 -0.058655142 10.834468
0.57085708 -0.05 -0.058930173 11.046462
0.56458539 -0.05 -0.059198087 11.260244
0.55831339 -0.05 -0.059458762 11.474862
0.55204109 -0.05 -0.059712036 11.690185
0.5457685 -0.05 -0.05995784 11.908463
0.53949561 -0.05 -0.060196009 12.129406
0.53322243 -0.05 -0.060426405 12.352209
0.52694896 -0.05 -0.060648957 12.578136
0.52067521 -0.05 -0.060863492 12.806565
0.5144012 -0.05 -0.06106987 13.037397
0.50812692 -0.05 -0.061267923 13.270656
0.50185237 -0.05 -0.061457512 13.506749
0.49557757 -0.05 -0.061638515 13.74633
0.48930252 -0.05 -0.061810733 13.988236
0.48302723 -0.05 -0.061973963 14.232371
0.47675171 -0.05 -0.062128082 14.479063
0.47047597 -0.05 -0.062272952 14.729031
0.46420003 -0.05 -0.062408322 14.981331
0.45792387 -0.05 -0.062533978 15.236193
0.45164753 -0.05 -0.062649757 15.493995
0.44537101 -0.05 -0.062755477 15.75481
0.43909433 -0.05 -0.062850912 16.017906
0.43281749 -0.05 -0.062935823 16.283289
0.42654052 -0.05 -0.063009997 16.551069
0.42026342 -0.05 -0.063073239 16.822038
0.41398623 -0.05 -0.063125299 17.09557
0.40770895 -0.05 -0.063165899 17.371253
0.40143162 -0.05 -0.063194815 17.649473
0.39515422 -0.05 -0.063211762 17.930398
0.38887682 -0.05 -0.063216433 18.212502
0.38259942 -0.05 -0.063208611 18.497491
0.37632204 -0.05 -0.063188059 18.785677
0.37004473 -0.05 -0.063154377 19.075934
0.3637675 -0.05 -0.063107246 19.366964
0.35749039 -0.05 -0.063046426 19.660687
0.35121342 -0.05 -0.06297158 19.956866
0.34493664 -0.05 -0.062882355 20.255902
0.3386601 -0.05 -0.062778361 20.555563
0.33238382 -0.05 -0.062659273 20.856754
0.32610786 -0.05 -0.0625247 21.159737
0.31983226 -0.05 -0.062374219 21.463625
0.31355706 -0.05 -0.062207442 21.766766
0.30728234 -0.05 -0.062023956 22.077827
0.30100814 -0.05 -0.061823329 22.582006
0.29923024 -0.05 0.0583182 22.919404
0.29359599 -0.05 0.058501892 22.871797
0.2880424 -0.05 0.058668378 22.662798
0.28256833 -0.05 0.058817908 22.465074
0.27717269 -0.05 0.058950788 22.274476
0.27185438 -0.05 0.059067354 22.091673
0.26661232 -0.05 0.059167917 21.916316
0.26144548 -0.05 0.059252763 21.747917
0.2563528 -0.05 0.059322214 21.586961
0.25133325 -0.05 0.059376555 21.43321
0.24638582 -0.05 0.059416004 21.285329
0.24150953 -0.05 0.059440876 21.143265
0.23670337 -0.05 0.059451448 21.006339
0.23196639 -0.05 0.05944802 20.873849
0.22729762 -0.05 0.059430867 20.747447
0.22269614 -0.05 0.059400195 20.62638
0.218161 -0.05 0.059356302 20.510984
0.21369129 -0.05 0.059299444 20.40196
0.20928612 -0.05 0.059229785 20.297523
0.20494461 -0.05 0.059147621 20.198179
0.20066586 -0.05 0.059053198 20.104281
0.19644902 -0.05 0.058946779 20.015881
0.19229323 -0.05 0.058828597 19.933582
0.18819767 -0.05 0.058698767 19.855526
0.18416151 -0.05 0.058557571 19.781971
0.18018393 -0.05 0.058405229 19.713722
0.17626412 -0.05 0.05824193 19.649093
0.17240132 -0.05 0.058067912 19.589536
0.16859473 -0.05 0.057883364 19.534085
0.16484358 -0.05 0.05768845 19.483052
0.16114713 -0.05 0.057483327 19.435112
0.15750463 -0.05 0.057268247 19.391315
0.15391535 -0.05 0.057043352 19.352182
0.15037857 -0.05 0.056808808 19.316755
0.14689357 -0.05 0.056564789 19.286008
0.14345967 -0.05 0.056311416 19.258395
0.14007617 -0.05 0.056048869 19.234186
0.13674239 -0.05 0.05577729 19.213466
0.13345767 -0.05 0.055496871 19.196266
0.13022134 -0.05 0.055207745 19.183181
0.12703277 -0.05 0.054909962 19.171956
0.12389132 -0.05 0.054603727 19.163469
0.12079635 -0.05 0.054289183 19.159581
0.11774726 -0.05 0.053966366 19.158038
0.11474344 -0.05 0.053635372 19.158895
0.11178431 -0.05 0.053296354 19.162189
0.10886927 -0.05 0.052949362 19.168651
0.10599776 -0.05 0.05259451 19.176599
0.10316919 -0.05 0.052231974 19.188858
0.10038302 -0.05 0.051861714 19.204077
0.097638722 -0.05 0.0514838 19.220884
0.094935736 -0.05 0.051098395 19.242038
0.092273563 -0.05 0.050705432 19.265748
0.089651683 -0.05 0.050304992 19.288912
0.087069589 -0.05 0.049897157 19.315042
0.084526788 -0.05 0.049481969 19.340725
0.082022793 -0.05 0.049059486 19.369813
0.079557154 -0.05 0.048629618 19.399424
0.077129413 -0.05 0.04819237 19.430262
0.074739106 -0.05 0.04774783 19.463923
0.072385788 -0.05 0.047296028 19.502596
0.070069052 -0.05 0.046836866 19.544294
0.067788485 -0.05 0.046370314 19.586683
0.065543675 -0.05 0.045896382 19.630787
0.063334245 -0.05 0.045414989 19.676028
0.06115982 -0.05 0.044926061 19.721651
0.059020038 -0.05 0.044429546 19.76879
0.056914555 -0.05 0.043925352 19.818092
0.054843018 -0.05 0.043413456 19.868028
0.052805133 -0.05 0.042893675 19.920913
0.050800603 -0.05 0.04236587 19.97106
0.048829124 -0.05 0.04182998 20.025584
0.046890437 -0.05 0.041285832 20.083766
0.044984301 -0.05 0.040733245 20.149916
0.043110515 -0.05 0.040171948 20.221822
0.041268874 -0.05 0.039601754 20.294952
0.039459175 -0.05 0.03902252 20.369052
0.037681279 -0.05 0.038433961 20.44412
0.035935074 -0.05 0.037835773 20.518944
0.034220476 -0.05 0.037227646 20.600506
0.032537425 -0.05 0.036609265 20.687341
0.030885902 -0.05 0.035980277 20.777229
0.029265952 -0.05 0.035340248 20.86824
0.027677633 -0.05 0.034688797 20.966459
0.02612108 -0.05 0.034025432 21.080688
0.024596489 -0.05 0.033349632 21.213414
0.023104106 -0.05 0.032660879 21.343669
0.021644293 -0.05 0.031958533 21.453082
0.020217441 -0.05 0.031242014 21.529655
0.018824105 -0.05 0.030510578 21.573605
0.01746492 -0.05 0.029763449 21.589946
0.016140618 -0.05 0.028999858 21.628526
0.014852118 -0.05 0.028218934 21.714962
0.013600518 -0.05 0.027419781 21.874978
0.012387109 -0.05 0.026601465 22.141971
0.011213412 -0.05 0.025762943 22.530237
0.010081139 -0.05 0.024903105 23.032162
0.0089923262 -0.05 0.024021029 23.690927
0.0079494334 -0.05 0.023115795 24.456005
0.0069551555 -0.05 0.022186226 25.195205
0.0060125241 -0.05 0.021231491 25.802879
0.0051252641 -0.05 0.020251301 26.237421
0.0042972309 -0.05 0.019245148 26.414915
0.0035325156 -0.05 0.018213066 26.351216
0.0028358994 -0.05 0.017156216 26.012798
0.0022120043 -0.05 0.01607591 25.372143
0.0016652546 -0.05 0.014974495 24.378137
0.0011997136 -0.05 0.013855873 23.007587
0.00081861117 -0.05 0.012724333 21.261952
0.00052388213 -0.05 0.011585118 19.147109
0.00031581907 -0.05 0.010444278 16.635924
0.00019313577 -0.05 0.0093079265 13.731142
0.99645266 -0.05 -0.025666936 54.292744
0.99027463 -0.05 -0.024554371 44.723129
0.98409535 -0.05 -0.023448755 44.704478
0.97791483 -0.05 -0.022350061 44.917815
0.97173311 -0.05 -0.021258182 45.030338
0.96555022 -0.05 -0.020172963 45.120148
0.95936615 -0.05 -0.01909442 45.180009
0.95318094 -0.05 -0.018022489 45.217773
0.94699461 -0.05 -0.016957019 45.236289
0.94080719 -0.05 -0.015897925 45.235624
0.93461868 -0.05 -0.014845201 45.222567
0.9284291 -0.05 -0.01379879 45.193751
0.92223846 -0.05 -0.012758614 45.157922
0.91604679 -0.05 -0.011724639 45.110373
0.90985411 -0.05 -0.010696715 45.055731
0.90366043 -0.05 -0.0096748439 44.985618
0.89746577 -0.05 -0.0086589965 44.907012
0.89127014 -0.05 -0.0076490363 44.81486
0.88507355 -0.05 -0.00664495 44.71388
0.87887599 -0.05 -0.0056467944 44.598995
0.87267752 -0.05 -0.0046544329 44.478909
0.86647812 -0.05 -0.0036677978 44.352919
0.86027783 -0.05 -0.0026869179 44.225791
0.85407663 -0.05 -0.0017117073 44.092394
0.84787455 -0.05 -0.00074210369 43.960332
0.84167159 -0.05 0.00022187895 43.825748
0.83546776 -0.05 0.0011802044 43.690709
0.82926309 -0.05 0.002133047 43.550489
0.82305757 -0.05 0.0030803668 43.407603
0.81685121 -0.05 0.0040221173 43.256394
0.81064401 -0.05 0.0049583774 43.097864
0.80443598 -0.05 0.0058891567 42.926122
0.79822715 -0.05 0.0068144864 42.747726
0.79201749 -0.05 0.0077343215 42.562114
0.78580704 -0.05 0.008648748 42.374576
0.77959579 -0.05 0.0095577308 42.183523
0.77338374 -0.05 0.010461238 41.992512
0.76717091 -0.05 0.01135933 41.80066
0.76095728 -0.05 0.012251994 41.609304
0.75474289 -0.05 0.013139218 41.41452
0.74852772 -0.05 0.014020975 41.218286
0.74231176 -0.05 0.014897249 41.01728
0.73609505 -0.05 0.015768025 40.809888
0.72987755 -0.05 0.016633267 40.590194
0.72365929 -0.05 0.01749301 40.35769
0.71744028 -0.05 0.018347282 40.111436
0.7112205 -0.05 0.019195909 39.856825
0.70499995 -0.05 0.020038942 39.598659
0.69877864 -0.05 0.020876346 39.342914
0.69255657 -0.05 0.021708029 39.087144
0.68633374 -0.05 0.022534047 38.833324
0.68011015 -0.05 0.0233543 38.580561
0.6738858 -0.05 0.0241688 38.329753
0.66766069 -0.05 0.02497743 38.078391
0.66143481 -0.05 0.025780091 37.822396
0.65520817 -0.05 0.026576866 37.555093
0.64898077 -0.05 0.027367669 37.27108
0.6427526 -0.05 0.028152335 36.965218
0.63652364 -0.05 0.02893083 36.645757
0.63029392 -0.05 0.029703156 36.322511
0.62406342 -0.05 0.030469178 35.998503
0.61783215 -0.05 0.03122881 35.673087
0.61160009 -0.05 0.031982047 35.347686
0.60536725 -0.05 0.032728748 35.021232
0.59913362 -0.05 0.033468838 34.696063
0.59289919 -0.05 0.034202234 34.372731
0.58666398 -0.05 0.034928846 34.052924
0.58042796 -0.05 0.035648557 33.732525
0.57419114 -0.05 0.036361225 33.412247
0.5679535 -0.05 0.037066815 33.093113
0.56171507 -0.05 0.037765204 32.774733
0.55547581 -0.05 0.038456234 32.455313
0.54923573 -0.05 0.039139831 32.136584
0.54299482 -0.05 0.039815832 31.817275
0.53675308 -0.05 0.0404841 31.497269
0.53051051 -0.05 0.041144563 31.176552
0.52426711 -0.05 0.04179705 30.85791
0.51802286 -0.05 0.042441417 30.543889
0.51177775 -0.05 0.043077497 30.237606
0.50553179 -0.05 0.043705154 29.933022
0.499285 -0.05 0.044324262 29.637715
0.49303733 -0.05 0.044934625 29.350138
0.48678879 -0.05 0.04553604 29.071253
0.48053939 -0.05 0.04612838 28.801845
0.47428913 -0.05 0.04671151 28.543122
0.46803798 -0.05 0.047285178 28.292734
0.46178596 -0.05 0.047849169 28.048679
0.45553306 -0.05 0.048403322 27.809713
0.44927927 -0.05 0.048947452 27.576175
0.44302461 -0.05 0.049481335 27.347042
0.43676906 -0.05 0.050004727 27.12256
0.43051262 -0.05 0.050517421 26.901959
0.42425529 -0.05 0.051019218 26.686424
0.41799708 -0.05 0.051509866 26.474955
0.411738 -0.05 0.051989088 26.267457
0.40547803 -0.05 0.052456659 26.063517
0.39921718 -0.05 0.052912295 25.863962
0.39295545 -0.05 0.053355685 25.667415
0.38669285 -0.05 0.053786613 25.475204
0.38042938 -0.05 0.054204839 25.286812
0.37416506 -0.05 0.054609964 25.102329
0.36789989 -0.05 0.055001667 24.9207
0.36163388 -0.05 0.055379706 24.743158
0.35536703 -0.05 0.055743742 24.568959
0.34909938 -0.05 0.056093422 24.399052
0.34283091 -0.05 0.056428354 24.232274
0.33656165 -0.05 0.056748208 24.069772
0.33029163 -0.05 0.057052594 23.910698
0.32402085 -0.05 0.057341085 23.755273
0.31774936 -0.05 0.057613293 23.604445
0.31147715 -0.05 0.057868799 23.461171
0.30520427 -0.05 0.058107169 23.127071
