# p  FACE_DATA 448
# x y z  p
0.29967944 -0.05 -0.057936018 99404.945
0.29404679 -0.05 -0.058163245 99398.08
0.28849464 -0.05 -0.058372642 99390.658
0.28302189 -0.05 -0.058564471 99383.48
0.27762744 -0.05 -0.058739043 99376.331
0.27231019 -0.05 -0.058896704 99369.311
0.26706907 -0.05 -0.059037775 99362.346
0.26190303 -0.05 -0.059162545 99355.541
0.25681104 -0.05 -0.05927135 99348.713
0.25179206 -0.05 -0.059364479 99342.049
0.24684508 -0.05 -0.059442159 99335.466
0.24196912 -0.05 -0.059504713 99329.01
0.23716319 -0.05 -0.059552427 99322.659
0.23242633 -0.05 -0.059585604 99316.322
0.22775757 -0.05 -0.059604531 99310.089
0.22315599 -0.05 -0.05960942 99303.985
0.21862065 -0.05 -0.059600574 99297.829
0.21415064 -0.05 -0.059578259 99291.863
0.20974505 -0.05 -0.059542643 99286.042
0.20540303 -0.05 -0.059494032 99280.282
0.20112368 -0.05 -0.059432678 99274.639
0.19690614 -0.05 -0.059358848 99268.957
0.19274957 -0.05 -0.059272786 99263.4
0.18865313 -0.05 -0.059174609 99258.041
0.18461599 -0.05 -0.059064607 99252.664
0.18063736 -0.05 -0.058943008 99247.497
0.17671641 -0.05 -0.058810006 99242.336
0.17285237 -0.05 -0.058665844 99237.269
0.16904446 -0.05 -0.058510717 99232.206
0.16529193 -0.05 -0.058344797 99227.325
0.161594 -0.05 -0.058168246 99222.525
0.15794994 -0.05 -0.057981321 99217.767
0.15435903 -0.05 -0.05778417 99213.184
0.15082055 -0.05 -0.057576963 99208.607
0.14733378 -0.05 -0.057359884 99204.176
0.14389801 -0.05 -0.057133053 99199.855
0.14051258 -0.05 -0.056896662 99195.635
0.13717681 -0.05 -0.056650854 99191.521
0.13389002 -0.05 -0.056395826 99187.344
0.13065155 -0.05 -0.056131719 99183.364
0.12746077 -0.05 -0.055858586 99179.555
0.12431705 -0.05 -0.055576635 99175.706
0.12121974 -0.05 -0.055286018 99171.979
0.11816825 -0.05 -0.054986774 99168.415
0.11516197 -0.05 -0.054679003 99164.984
0.1122003 -0.05 -0.054362861 99161.612
0.10928267 -0.05 -0.054038407 99158.521
0.1064085 -0.05 -0.053705757 99155.365
0.10357721 -0.05 -0.05336509 99152.25
0.10078827 -0.05 -0.053016371 99149.44
0.098041126 -0.05 -0.052659676 99146.624
0.095335244 -0.05 -0.052295171 99143.882
0.092670113 -0.05 -0.051922792 99141.501
0.090045217 -0.05 -0.051542626 99139.108
0.087460048 -0.05 -0.051154757 99137.018
0.084914115 -0.05 -0.050759231 99134.826
0.08240693 -0.05 -0.050356112 99132.819
0.079938043 -0.05 -0.04994531 99131.094
0.077506995 -0.05 -0.049526836 99129.597
0.075113323 -0.05 -0.04910078 99128.087
0.072756585 -0.05 -0.048667178 99126.74
0.070436369 -0.05 -0.048225933 99125.783
0.068152265 -0.05 -0.04777702 99125.036
0.06590386 -0.05 -0.047320449 99124.54
0.063690775 -0.05 -0.046856144 99124.358
0.061512638 -0.05 -0.046384034 99124.422
0.059369083 -0.05 -0.045904069 99124.697
0.057259766 -0.05 -0.045416161 99125.195
0.055184336 -0.05 -0.044920288 99125.863
0.053142494 -0.05 -0.044416272 99127.334
0.051133945 -0.05 -0.043903972 99129.098
0.049158383 -0.05 -0.043383334 99131.313
0.047215549 -0.05 -0.042854184 99133.763
0.0453052 -0.05 -0.042316343 99136.631
0.043427132 -0.05 -0.041769544 99140.125
0.04158114 -0.05 -0.041213599 99144.19
0.039767019 -0.05 -0.040648366 99148.973
0.037984628 -0.05 -0.040073563 99154.747
0.036233852 -0.05 -0.039488889 99161.312
0.034514606 -0.05 -0.03889403 99168.661
0.032826826 -0.05 -0.038288674 99177.052
0.031170492 -0.05 -0.037672467 99187.119
0.029545645 -0.05 -0.037044977 99198.121
0.027952339 -0.05 -0.036405818 99210.453
0.026390706 -0.05 -0.035754502 99224.731
0.024860938 -0.05 -0.035090503 99240.437
0.023363277 -0.05 -0.034413304 99257.738
0.02189808 -0.05 -0.033722261 99277.198
0.020465734 -0.05 -0.033016789 99299.065
0.019066786 -0.05 -0.032296142 99324.244
0.017701869 -0.05 -0.031559538 99352.51
0.016371706 -0.05 -0.030806205 99384.84
0.01507721 -0.05 -0.030035261 99421.48
0.013819471 -0.05 -0.029245804 99463.133
0.012599774 -0.05 -0.02843689 99510.408
0.011419633 -0.05 -0.027607463 99565.418
0.010280749 -0.05 -0.0267564 99628.255
0.0091851517 -0.05 -0.025882765 99698.667
0.0081352946 -0.05 -0.024985617 99776.883
0.0071338629 -0.05 -0.02406376 99864.614
0.0061838816 -0.05 -0.023116338 99963.702
0.0052890735 -0.05 -0.022143033 100075.09
0.0044532897 -0.05 -0.021143308 100198.38
0.0036806215 -0.05 -0.020117168 100333.43
0.002975859 -0.05 -0.019065732 100478.68
0.0023436342 -0.05 -0.017990279 100632.21
0.0017883894 -0.05 -0.016893123 100789.97
0.0013142177 -0.05 -0.015778132 100946.87
0.00092438241 -0.05 -0.014649571 101097.43
0.00062085859 -0.05 -0.013512667 101236.14
0.00040398559 -0.05 -0.012373469 101355.06
0.00027252449 -0.05 -0.011238099 101449.6
0.99623202 -0.05 0.031434587 100175.61
0.99006277 -0.05 0.030274314 100176.25
0.98389221 -0.05 0.029120978 100171.63
0.97772038 -0.05 0.027974554 100169.87
0.97154728 -0.05 0.026834938 100167.15
0.96537295 -0.05 0.025701971 100164.93
0.95919741 -0.05 0.024575671 100162.55
0.95302067 -0.05 0.023455975 100160.24
0.94684276 -0.05 0.02234273 100157.84
0.9406637 -0.05 0.021235852 100155.41
0.93448351 -0.05 0.020135337 100152.87
0.92830221 -0.05 0.019041124 100150.26
0.92211979 -0.05 0.017953139 100147.49
0.9159363 -0.05 0.016871348 100144.6
0.90975175 -0.05 0.015795599 100141.51
0.90356614 -0.05 0.014725895 100138.3
0.89737951 -0.05 0.013662208 100134.71
0.89119187 -0.05 0.012604399 100130.92
0.88500323 -0.05 0.011552456 100126.76
0.87881358 -0.05 0.010506437 100122.42
0.87262296 -0.05 0.0094662053 100117.54
0.86643138 -0.05 0.0084316922 100112.43
0.86023883 -0.05 0.007402927 100106.89
0.85404536 -0.05 0.006379824 100101.1
0.84785096 -0.05 0.0053623211 100094.65
0.84165565 -0.05 0.0043504322 100088.01
0.8354594 -0.05 0.0033441937 100080.96
0.82926227 -0.05 0.0023434311 100073.64
0.82306426 -0.05 0.0013481848 100065.89
0.81686537 -0.05 0.00035850107 100057.95
0.81066559 -0.05 -0.00062569896 100049.8
0.80446493 -0.05 -0.0016044246 100041.52
0.79826343 -0.05 -0.0025777073 100032.91
0.79206107 -0.05 -0.0035455017 100024.28
0.78585788 -0.05 -0.0045078938 100015.49
0.77965384 -0.05 -0.0054648484 100006.73
0.77344895 -0.05 -0.0064163341 99997.884
0.76724325 -0.05 -0.0073624112 99989.053
0.7610367 -0.05 -0.0083030657 99980.221
0.75482935 -0.05 -0.0092382866 99971.409
0.74862118 -0.05 -0.010168046 99962.657
0.74241219 -0.05 -0.011092329 99953.947
0.73620238 -0.05 -0.012011121 99945.344
0.72999175 -0.05 -0.012924385 99936.815
0.72378033 -0.05 -0.013832156 99928.355
0.71756811 -0.05 -0.014734461 99919.906
0.71135507 -0.05 -0.015631128 99911.617
0.70514122 -0.05 -0.016522207 99903.257
0.69892656 -0.05 -0.017407663 99895.151
0.6927111 -0.05 -0.018287404 99887.022
0.68649485 -0.05 -0.019161485 99879.026
0.68027779 -0.05 -0.020029809 99871.064
0.67405992 -0.05 -0.020892384 99863.167
0.66784124 -0.05 -0.021749097 99855.358
0.66162175 -0.05 -0.022599846 99847.602
0.65540145 -0.05 -0.023444715 99839.791
0.64918034 -0.05 -0.024283618 99832.124
0.64295842 -0.05 -0.02511639 99824.487
0.63673567 -0.05 -0.025942999 99816.896
0.6305121 -0.05 -0.026763445 99809.283
0.62428772 -0.05 -0.027577591 99801.822
0.61806249 -0.05 -0.028385354 99794.33
0.61183644 -0.05 -0.029186729 99786.864
0.60560955 -0.05 -0.029981572 99779.441
0.59938183 -0.05 -0.030769812 99772.057
0.59315326 -0.05 -0.031551365 99764.66
0.58692384 -0.05 -0.03232614 99757.236
0.58069357 -0.05 -0.033094021 99749.854
0.57446244 -0.05 -0.033854864 99742.513
0.56823046 -0.05 -0.034608635 99735.122
0.5619976 -0.05 -0.035355213 99727.766
0.55576386 -0.05 -0.036094438 99720.416
0.54952926 -0.05 -0.036826236 99713.065
0.54329376 -0.05 -0.037550446 99705.762
0.53705737 -0.05 -0.038266928 99698.436
0.53082009 -0.05 -0.038975613 99691.091
0.52458192 -0.05 -0.039676327 99683.76
0.51834283 -0.05 -0.040368929 99676.372
0.51210282 -0.05 -0.041053251 99669.001
0.50586191 -0.05 -0.041729157 99661.568
0.49962008 -0.05 -0.04239652 99654.149
0.49337732 -0.05 -0.043055145 99646.707
0.48713362 -0.05 -0.043704829 99639.298
0.48088898 -0.05 -0.044345446 99631.815
0.47464341 -0.05 -0.04497686 99624.329
0.46839688 -0.05 -0.045598817 99616.846
0.4621494 -0.05 -0.046211106 99609.361
0.45590097 -0.05 -0.046813564 99601.837
0.44965158 -0.05 -0.047406005 99594.306
0.44340123 -0.05 -0.047988206 99586.737
0.43714991 -0.05 -0.048559926 99579.15
0.43089762 -0.05 -0.049120952 99571.503
0.42464436 -0.05 -0.049671089 99563.817
0.41839013 -0.05 -0.050210084 99556.107
0.41213492 -0.05 -0.050737661 99548.385
0.40587876 -0.05 -0.051253594 99540.585
0.39962162 -0.05 -0.051757599 99532.822
0.3933635 -0.05 -0.052249364 99525.059
0.38710442 -0.05 -0.052728676 99517.241
0.38084438 -0.05 -0.053195291 99509.363
0.37458337 -0.05 -0.053648814 99501.572
0.36832141 -0.05 -0.054088921 99493.699
0.36205851 -0.05 -0.054515371 99485.771
0.35579467 -0.05 -0.054927826 99477.774
0.34952989 -0.05 -0.055325929 99469.768
0.3432642 -0.05 -0.055709292 99461.743
0.3369976 -0.05 -0.056077584 99453.647
0.33073012 -0.05 -0.056430414 99445.626
0.32446176 -0.05 -0.056767356 99437.633
0.31819255 -0.05 -0.057088021 99429.434
0.31192251 -0.05 -0.057391989 99420.849
0.30565166 -0.05 -0.057678828 99413.534
0.29455647 -0.05 0.061962489 99535.892
0.28892496 -0.05 0.061708426 99532.258
0.2833752 -0.05 0.061443466 99529.822
0.27790603 -0.05 0.061167772 99527.348
0.27251634 -0.05 0.060881565 99525.012
0.26720502 -0.05 0.060585093 99522.828
0.26197097 -0.05 0.060278584 99520.732
0.25681312 -0.05 0.05996224 99518.832
0.2517304 -0.05 0.059636304 99516.932
0.24672177 -0.05 0.059300978 99515.238
0.2417862 -0.05 0.058956402 99513.656
0.23692268 -0.05 0.058602812 99512.213
0.2321302 -0.05 0.058240409 99510.881
0.22740776 -0.05 0.057869413 99509.651
0.22275441 -0.05 0.057490029 99508.545
0.21816917 -0.05 0.057102387 99507.641
0.21365112 -0.05 0.056706712 99506.737
0.2091993 -0.05 0.056303189 99506.033
0.20481282 -0.05 0.05589191 99505.514
0.20049077 -0.05 0.055473104 99505.106
0.19623225 -0.05 0.055046947 99504.866
0.19203638 -0.05 0.054613633 99504.651
0.18790229 -0.05 0.054173331 99504.612
0.18382915 -0.05 0.053726088 99504.802
0.17981611 -0.05 0.053272122 99505.003
0.17586235 -0.05 0.052811591 99505.479
0.17196704 -0.05 0.052344619 99506.036
0.16812938 -0.05 0.051871383 99506.772
0.16434859 -0.05 0.051392009 99507.593
0.16062387 -0.05 0.050906604 99508.658
0.15695449 -0.05 0.050415265 99509.847
0.15333966 -0.05 0.049918186 99511.106
0.14977865 -0.05 0.049415451 99512.597
0.14627074 -0.05 0.048907169 99514.187
0.14281519 -0.05 0.04839346 99516.025
0.1394113 -0.05 0.047874389 99518.055
0.13605838 -0.05 0.047350084 99520.273
0.13275573 -0.05 0.046820632 99522.717
0.12950266 -0.05 0.046286173 99525.157
0.12629853 -0.05 0.045746789 99527.84
0.12314269 -0.05 0.04520248 99530.758
0.12003447 -0.05 0.0446534 99533.743
0.11697324 -0.05 0.044099642 99536.983
0.11395839 -0.05 0.043541199 99540.494
0.11098932 -0.05 0.042978115 99544.244
0.10806541 -0.05 0.042410498 99548.146
0.10518609 -0.05 0.041838354 99552.439
0.10235077 -0.05 0.041261751 99556.775
0.099558858 -0.05 0.040680818 99561.218
0.096809825 -0.05 0.040095475 99566.099
0.094103122 -0.05 0.039505751 99571.148
0.091438194 -0.05 0.038911765 99576.416
0.08881454 -0.05 0.038313409 99582.2
0.086231639 -0.05 0.037710725 99588.112
0.083688977 -0.05 0.037103756 99594.492
0.081186061 -0.05 0.036492507 99600.929
0.0787224 -0.05 0.035876995 99607.645
0.076297552 -0.05 0.035257096 99614.742
0.07391106 -0.05 0.03463278 99622.29
0.071562454 -0.05 0.034004098 99630.126
0.069251291 -0.05 0.033371049 99638.333
0.06697717 -0.05 0.032733498 99647.073
0.064739682 -0.05 0.032091388 99656.076
0.062538417 -0.05 0.031444694 99665.401
0.060373003 -0.05 0.030793306 99675.334
0.058243075 -0.05 0.030137123 99685.919
0.056148273 -0.05 0.029476064 99696.956
0.054088262 -0.05 0.028810011 99708.473
0.052062694 -0.05 0.028138912 99720.445
0.050071286 -0.05 0.027462565 99733.436
0.048113757 -0.05 0.026780805 99746.868
0.046189806 -0.05 0.02609355 99760.978
0.044299189 -0.05 0.025400605 99775.679
0.042441679 -0.05 0.024701773 99791.234
0.040617098 -0.05 0.023996769 99807.778
0.038825255 -0.05 0.023285388 99825.185
0.037065961 -0.05 0.022567471 99843.582
0.035339096 -0.05 0.021842727 99863.208
0.033644573 -0.05 0.021110843 99883.98
0.031982335 -0.05 0.020371501 99906.093
0.030352342 -0.05 0.019624385 99929.438
0.028754607 -0.05 0.01886914 99954.26
0.027189206 -0.05 0.018105338 99980.62
0.025656227 -0.05 0.017332601 100008.66
0.024155843 -0.05 0.016550452 100038.76
0.02268829 -0.05 0.015758385 100071
0.02125385 -0.05 0.014955904 100105.6
0.019852939 -0.05 0.0141424 100142.77
0.01848599 -0.05 0.013317321 100182.43
0.017153612 -0.05 0.012479971 100225.19
0.015856502 -0.05 0.011629625 100270.84
0.014595446 -0.05 0.010765575 100320.06
0.013371428 -0.05 0.0098870218 100373
0.012185614 -0.05 0.0089931576 100429.72
0.011039363 -0.05 0.0080831522 100490.2
0.0099342708 -0.05 0.0071560823 100556.1
0.0088721333 -0.05 0.0062109756 100626.7
0.0078550498 -0.05 0.0052470705 100702.42
0.0068855452 -0.05 0.0042636408 100782.96
0.0059663972 -0.05 0.0032597215 100868.43
0.0051006928 -0.05 0.0022347204 100957.92
0.0042921682 -0.05 0.0011886365 101050.81
0.0035447065 -0.05 0.00012126293 101145.62
0.0028623835 -0.05 -0.0009670456 101240.18
0.0022498764 -0.05 -0.0020747655 101331.39
0.0017116913 -0.05 -0.0032002269 101414.21
0.0012520569 -0.05 -0.0043407461 101484.26
0.00087472159 -0.05 -0.0054921204 101539.44
0.00058257264 -0.05 -0.0066498209 101573.07
0.00037713225 -0.05 -0.0078084717 101581.87
0.00025822258 -0.05 -0.0089620169 101565.09
0.0002240869 -0.05 -0.010104462 101520.45
0.99619363 -0.05 0.03233312 100110.01
0.9899479 -0.05 0.032962931 100121.77
0.98370145 -0.05 0.033585719 100098.16
0.97745431 -0.05 0.03420151 100084.08
0.97120651 -0.05 0.034810411 100069.06
0.96495804 -0.05 0.035412583 100055.8
0.95870893 -0.05 0.036008008 100043.34
0.95245919 -0.05 0.03659675 100031.74
0.94620884 -0.05 0.037178966 100020.82
0.93995789 -0.05 0.03775474 100010.5
0.93370636 -0.05 0.038324078 100000.75
0.92745424 -0.05 0.03888704 99991.455
0.92120156 -0.05 0.039443704 99982.628
0.91494832 -0.05 0.039994104 99974.188
0.90869455 -0.05 0.040538394 99966.066
0.90244024 -0.05 0.041076571 99958.255
0.89618543 -0.05 0.041608667 99950.765
0.88993012 -0.05 0.042134818 99943.487
0.88367429 -0.05 0.042655038 99936.503
0.87741798 -0.05 0.043169272 99929.75
0.87116118 -0.05 0.043677657 99923.164
0.86490392 -0.05 0.044180261 99916.798
0.8586462 -0.05 0.044677057 99910.626
0.85238803 -0.05 0.045168132 99904.566
0.84612942 -0.05 0.045653548 99898.654
0.83987036 -0.05 0.046133291 99892.906
0.83361088 -0.05 0.046607327 99887.334
0.82735097 -0.05 0.047075831 99881.754
0.82109065 -0.05 0.047538763 99876.397
0.81482992 -0.05 0.047996077 99871.078
0.80856879 -0.05 0.048447853 99865.917
0.80230726 -0.05 0.0488941 99860.765
0.79604534 -0.05 0.049334851 99855.749
0.78978303 -0.05 0.04977006 99850.811
0.78352035 -0.05 0.050199817 99845.909
0.77725729 -0.05 0.050624083 99841.117
0.77099387 -0.05 0.051042828 99836.377
0.76473008 -0.05 0.051456113 99831.697
0.75846592 -0.05 0.051863926 99827.075
0.75220142 -0.05 0.052266254 99822.486
0.74593656 -0.05 0.052663072 99817.965
0.73967136 -0.05 0.053054363 99813.481
0.73340581 -0.05 0.053440113 99809.057
0.72713992 -0.05 0.053820287 99804.69
0.7208737 -0.05 0.054194917 99800.32
0.71460716 -0.05 0.054564036 99795.96
0.70834027 -0.05 0.054927465 99791.731
0.70207306 -0.05 0.055285259 99787.391
0.69580553 -0.05 0.055637383 99783.203
0.68953768 -0.05 0.055983742 99778.965
0.68326952 -0.05 0.056324394 99774.781
0.67700105 -0.05 0.056659241 99770.606
0.67073227 -0.05 0.056988294 99766.402
0.66446318 -0.05 0.057311434 99762.291
0.65819379 -0.05 0.057628563 99758.2
0.65192409 -0.05 0.057939765 99754.045
0.64565411 -0.05 0.058244955 99749.943
0.63938382 -0.05 0.058543965 99745.882
0.63311324 -0.05 0.058836764 99741.829
0.62684237 -0.05 0.059123353 99737.735
0.62057123 -0.05 0.059403596 99733.716
0.61429979 -0.05 0.059677407 99729.667
0.60802807 -0.05 0.059944782 99725.62
0.60175608 -0.05 0.060205579 99721.6
0.59548382 -0.05 0.060459726 99717.557
0.58921128 -0.05 0.060707137 99713.544
0.58293848 -0.05 0.060947722 99709.49
0.57666542 -0.05 0.061181366 99705.483
0.5703921 -0.05 0.061407925 99701.483
0.56411853 -0.05 0.061627364 99697.456
0.55784471 -0.05 0.061839563 99693.461
0.55157063 -0.05 0.062044359 99689.465
0.54529633 -0.05 0.062241682 99685.43
0.53902178 -0.05 0.062431368 99681.457
0.532747 -0.05 0.06261328 99677.458
0.52647201 -0.05 0.062787345 99673.448
0.52019679 -0.05 0.062953392 99669.449
0.51392137 -0.05 0.06311128 99665.435
0.50764574 -0.05 0.06326084 99661.466
0.50136991 -0.05 0.063401935 99657.459
0.49509391 -0.05 0.063534442 99653.462
0.48881772 -0.05 0.063658163 99649.473
0.48254135 -0.05 0.063772895 99645.526
0.47626483 -0.05 0.063878514 99641.527
0.46998816 -0.05 0.063974882 99637.535
0.46371135 -0.05 0.064061748 99633.571
0.45743441 -0.05 0.064138899 99629.624
0.45115737 -0.05 0.064206172 99625.661
0.44488022 -0.05 0.064263386 99621.703
0.43860299 -0.05 0.064310314 99617.772
0.43232568 -0.05 0.064346716 99613.88
0.42604832 -0.05 0.064372382 99609.963
0.41977093 -0.05 0.064387114 99606.051
0.41349351 -0.05 0.064390663 99602.172
0.40721611 -0.05 0.064382752 99598.319
0.40093874 -0.05 0.064363157 99594.437
0.39466141 -0.05 0.064331594 99590.631
0.38838416 -0.05 0.064287754 99586.878
0.382107 -0.05 0.064231422 99583.11
0.37582997 -0.05 0.06416236 99579.307
0.36955309 -0.05 0.064080169 99575.627
0.36327641 -0.05 0.063984531 99571.96
0.35699996 -0.05 0.063875205 99568.332
0.35072377 -0.05 0.063751855 99564.715
0.34444787 -0.05 0.063614125 99561.162
0.33817232 -0.05 0.063461632 99557.694
0.33189715 -0.05 0.063294045 99554.208
0.32562241 -0.05 0.063110977 99550.777
0.31934816 -0.05 0.062912004 99547.475
0.31307445 -0.05 0.062696739 99544.448
0.30680132 -0.05 0.062464769 99541.189
0.30052886 -0.05 0.062215663 99536.737
