# wallShearStress  FACE_DATA 448
# x y z  wallShearStress_x wallShearStress_y wallShearStress_z
0.29967944 -0.05 -0.057936018 -7.1967506 3.0235183e-16 -0.29536399
0.29404679 -0.05 -0.058163245 -7.2760877 7.8432472e-17 -0.27986046
0.28849464 -0.05 -0.058372642 -7.2888675 -2.6960885e-16 -0.26113025
0.28302189 -0.05 -0.058564471 -7.3058442 -2.0414248e-16 -0.24215624
0.27762744 -0.05 -0.058739043 -7.3223986 -2.9253223e-17 -0.22300064
0.27231019 -0.05 -0.058896704 -7.3398725 8.6682215e-17 -0.20353078
0.26706907 -0.05 -0.059037775 -7.3578703 -1.1570663e-16 -0.18385926
0.26190303 -0.05 -0.059162545 -7.3764846 1.8505095e-17 -0.16381466
0.25681104 -0.05 -0.05927135 -7.3957675 6.1298143e-17 -0.14363915
0.25179206 -0.05 -0.059364479 -7.4159694 -9.7117577e-17 -0.12300984
0.24684508 -0.05 -0.059442159 -7.4363694 -1.0628846e-17 -0.10239499
0.24196912 -0.05 -0.059504713 -7.4572384 -7.8866498e-17 -0.08209426
0.23716319 -0.05 -0.059552427 -7.4781376 -4.9127162e-17 -0.061084599
0.23242633 -0.05 -0.059585604 -7.4992592 -3.6113932e-17 -0.037635257
0.22775757 -0.05 -0.059604531 -7.521507 1.4127826e-17 -0.014956392
0.22315599 -0.05 -0.05960942 -7.5441374 5.5616612e-19 0.0085196569
0.21862065 -0.05 -0.059600574 -7.5677398 2.2282275e-17 0.03266925
0.21415064 -0.05 -0.059578259 -7.5927096 6.8754421e-18 0.055908602
0.20974505 -0.05 -0.059542643 -7.617782 3.5769339e-17 0.078792006
0.20540303 -0.05 -0.059494032 -7.6434303 1.2186654e-16 0.10232386
0.20112368 -0.05 -0.059432678 -7.6698667 -5.2691656e-17 0.1268737
0.19690614 -0.05 -0.059358848 -7.6972995 2.6642366e-18 0.1519342
0.19274957 -0.05 -0.059272786 -7.7260677 8.2592053e-17 0.17765966
0.18865313 -0.05 -0.059174609 -7.7550203 -2.9522769e-17 0.20383717
0.18461599 -0.05 -0.059064607 -7.7844824 -2.5963985e-18 0.23035102
0.18063736 -0.05 -0.058943008 -7.8148522 1.6144501e-16 0.25753787
0.17671641 -0.05 -0.058810006 -7.8453896 2.3738784e-16 0.28507158
0.17285237 -0.05 -0.058665844 -7.8769976 9.9764601e-17 0.31327566
0.16904446 -0.05 -0.058510717 -7.9093562 2.5804517e-16 0.34205077
0.16529193 -0.05 -0.058344797 -7.9424636 -1.2303931e-17 0.3715505
0.161594 -0.05 -0.058168246 -7.9757477 1.487995e-16 0.40149758
0.15794994 -0.05 -0.057981321 -8.010009 3.3623856e-16 0.43212768
0.15435903 -0.05 -0.05778417 -8.0450664 2.6271811e-17 0.46352447
0.15082055 -0.05 -0.057576963 -8.0807651 1.326757e-16 0.49552455
0.14733378 -0.05 -0.057359884 -8.1175981 1.6237882e-17 0.52842525
0.14389801 -0.05 -0.057133053 -8.1548357 8.9013551e-17 0.56198768
0.14051258 -0.05 -0.056896662 -8.1927461 2.020803e-16 0.59629611
0.13717681 -0.05 -0.056650854 -8.2314474 5.0132023e-17 0.63138057
0.13389002 -0.05 -0.056395826 -8.2713902 -4.4551795e-17 0.66731948
0.13065155 -0.05 -0.056131719 -8.3126019 1.3442019e-16 0.70442828
0.12746077 -0.05 -0.055858586 -8.3536026 -2.6938264e-16 0.74217505
0.12431705 -0.05 -0.055576635 -8.3951427 1.7089599e-17 0.78074559
0.12121974 -0.05 -0.055286018 -8.437598 4.630035e-17 0.82060027
0.11816825 -0.05 -0.054986774 -8.4797642 1.1665669e-16 0.86141632
0.11516197 -0.05 -0.054679003 -8.5217025 7.5421892e-17 0.90312849
0.1122003 -0.05 -0.054362861 -8.5637904 -6.002668e-17 0.94593627
0.10928267 -0.05 -0.054038407 -8.6059364 -3.8145575e-16 0.98984439
0.1064085 -0.05 -0.053705757 -8.6482988 -6.1206205e-16 1.0346175
0.10357721 -0.05 -0.05336509 -8.6926263 2.0843023e-16 1.0811908
0.10078827 -0.05 -0.053016371 -8.7373815 1.748451e-16 1.1291212
0.098041126 -0.05 -0.052659676 -8.7821868 3.7171042e-16 1.1780432
0.095335244 -0.05 -0.052295171 -8.8286838 5.0250361e-16 1.2289464
0.092670113 -0.05 -0.051922792 -8.8754315 -4.5242394e-16 1.2813304
0.090045217 -0.05 -0.051542626 -8.9218654 -4.0810406e-16 1.3348176
0.087460048 -0.05 -0.051154757 -8.969332 -1.5385367e-16 1.3901051
0.084914115 -0.05 -0.050759231 -9.0168204 -5.9869071e-17 1.4468685
0.08240693 -0.05 -0.050356112 -9.0654088 -1.1030156e-15 1.5060883
0.079938043 -0.05 -0.04994531 -9.1125732 -9.412584e-17 1.5668171
0.077506995 -0.05 -0.049526836 -9.1582663 -5.3732584e-16 1.6288443
0.075113323 -0.05 -0.04910078 -9.2037056 -8.307488e-16 1.6928319
0.072756585 -0.05 -0.048667178 -9.2497963 2.623115e-16 1.7595734
0.070436369 -0.05 -0.048225933 -9.2952398 7.6043801e-16 1.8284419
0.068152265 -0.05 -0.04777702 -9.3399156 5.7290903e-16 1.8992996
0.06590386 -0.05 -0.047320449 -9.3847987 7.7515404e-17 1.9728597
0.063690775 -0.05 -0.046856144 -9.4288164 2.4460516e-16 2.0489132
0.061512638 -0.05 -0.046384034 -9.4719929 6.5288943e-16 2.1275195
0.059369083 -0.05 -0.045904069 -9.5151091 1.9032176e-16 2.2092232
0.057259766 -0.05 -0.045416161 -9.5588468 8.1151607e-17 2.294367
0.055184336 -0.05 -0.044920288 -9.603256 -2.9906536e-16 2.3835495
0.053142494 -0.05 -0.044416272 -9.6467124 2.9511484e-16 2.4761447
0.051133945 -0.05 -0.043903972 -9.686145 3.4457626e-16 2.5709796
0.049158383 -0.05 -0.043383334 -9.7247789 -7.5005714e-17 2.6700724
0.047215549 -0.05 -0.042854184 -9.7611017 -3.3698836e-16 2.7734594
0.0453052 -0.05 -0.042316343 -9.7962362 1.5207571e-16 2.882381
0.043427132 -0.05 -0.041769544 -9.8283561 3.3682234e-16 2.9961157
0.04158114 -0.05 -0.041213599 -9.857128 1.0808414e-17 3.1148613
0.039767019 -0.05 -0.040648366 -9.8842379 -6.0319779e-16 3.2398536
0.037984628 -0.05 -0.040073563 -9.9092108 1.764766e-16 3.3709943
0.036233852 -0.05 -0.039488889 -9.9320736 -8.6516345e-16 3.5083184
0.034514606 -0.05 -0.03889403 -9.9550677 -4.9444884e-16 3.6539682
0.032826826 -0.05 -0.038288674 -9.9806985 1.3314335e-16 3.81021
0.031170492 -0.05 -0.037672467 -10.0067 -4.5713378e-16 3.9758874
0.029545645 -0.05 -0.037044977 -10.022929 -5.5704009e-16 4.1496825
0.027952339 -0.05 -0.036405818 -10.030841 -4.5342394e-16 4.3344706
0.026390706 -0.05 -0.035754502 -10.021241 2.9238084e-16 4.5274294
0.024860938 -0.05 -0.035090503 -9.983949 -5.5242453e-17 4.729135
0.023363277 -0.05 -0.034413304 -9.919274 3.1105556e-16 4.9448798
0.02189808 -0.05 -0.033722261 -9.8326458 4.2227986e-16 5.1785179
0.020465734 -0.05 -0.033016789 -9.7284232 -2.6133427e-16 5.4327979
0.019066786 -0.05 -0.032296142 -9.6137198 -5.992307e-17 5.7137898
0.017701869 -0.05 -0.031559538 -9.4689016 -3.9451691e-16 6.019733
0.016371706 -0.05 -0.030806205 -9.2964711 1.127808e-15 6.3601788
0.01507721 -0.05 -0.030035261 -9.0885212 -9.2120354e-16 6.7366089
0.013819471 -0.05 -0.029245804 -8.8463412 -1.0516355e-16 7.1557919
0.012599774 -0.05 -0.02843689 -8.5790302 -2.4955858e-16 7.61073
0.011419633 -0.05 -0.027607463 -8.3221954 1.3702308e-16 8.0763254
0.010280749 -0.05 -0.0267564 -8.1462825 -1.3429247e-16 8.5530576
0.0091851517 -0.05 -0.025882765 -8.0021262 -3.493178e-17 9.0326635
0.0081352946 -0.05 -0.024985617 -7.8144916 5.3628529e-16 9.4719222
0.0071338629 -0.05 -0.02406376 -7.5256225 2.0652711e-16 9.8336935
0.0061838816 -0.05 -0.023116338 -7.1042284 -8.1196672e-17 10.094747
0.0052890735 -0.05 -0.022143033 -6.5561554 4.195685e-16 10.2188
0.0044532897 -0.05 -0.021143308 -5.8948923 -4.0420936e-17 10.181447
0.0036806215 -0.05 -0.020117168 -5.1486446 5.4192989e-16 9.9696168
0.002975859 -0.05 -0.019065732 -4.3484347 5.3428998e-16 9.5697913
0.0023436342 -0.05 -0.017990279 -3.5259703 2.1606388e-16 8.9654495
0.0017883894 -0.05 -0.016893123 -2.7167814 -1.6942527e-16 8.1579827
0.0013142177 -0.05 -0.015778132 -1.9592039 1.7819805e-16 7.1771534
0.00092438241 -0.05 -0.014649571 -1.2928731 -1.5605089e-16 6.0667234
0.00062085859 -0.05 -0.013512667 -0.78856283 4.1622528e-17 4.8850048
0.00040398559 -0.05 -0.012373469 -0.44677344 -3.4033648e-17 3.678912
0.00027252449 -0.05 -0.011238099 -0.24229198 -5.1211055e-17 2.5102726
0.99623202 -0.05 0.031434587 -0.28358444 -2.1469721e-17 -0.10715547
0.99006277 -0.05 0.030274314 -0.70900492 1.3173004e-15 -0.12932736
0.98389221 -0.05 0.029120978 -0.70666018 -3.1122124e-16 -0.13046397
0.97772038 -0.05 0.027974554 -0.81865457 -1.1122578e-16 -0.14995074
0.97154728 -0.05 0.026834938 -0.89497593 1.1469613e-16 -0.1626887
0.96537295 -0.05 0.025701971 -0.99470467 1.2914926e-15 -0.17973314
0.95919741 -0.05 0.024575671 -1.0923437 9.3093845e-16 -0.19619753
0.95302067 -0.05 0.023455975 -1.1978586 -2.5767975e-16 -0.21394541
0.94684276 -0.05 0.02234273 -1.307938 4.3754452e-16 -0.23230793
0.9406637 -0.05 0.021235852 -1.4243609 1.0238768e-16 -0.25156744
0.93448351 -0.05 0.020135337 -1.5463977 -1.4929956e-15 -0.27160431
0.92830221 -0.05 0.019041124 -1.674782 -7.1394498e-17 -0.29255296
0.92211979 -0.05 0.017953139 -1.8095466 1.3957865e-16 -0.31439103
0.9159363 -0.05 0.016871348 -1.9509191 -1.0865221e-15 -0.33713942
0.90975175 -0.05 0.015795599 -2.0981566 8.3175238e-17 -0.36069811
0.90356614 -0.05 0.014725895 -2.2511526 4.2985148e-16 -0.38504784
0.89737951 -0.05 0.013662208 -2.4103286 -2.525879e-16 -0.41023786
0.89119187 -0.05 0.012604399 -2.5757431 -1.2808638e-16 -0.43613989
0.88500323 -0.05 0.011552456 -2.7445971 3.8992328e-16 -0.46239314
0.87881358 -0.05 0.010506437 -2.9170166 -1.1874132e-15 -0.48898501
0.87262296 -0.05 0.0094662053 -3.0921641 4.4723298e-17 -0.51582986
0.86643138 -0.05 0.0084316922 -3.2699185 -3.2160066e-16 -0.54268888
0.86023883 -0.05 0.007402927 -3.4468523 6.3729429e-16 -0.56923286
0.85404536 -0.05 0.006379824 -3.6233952 1.2941793e-15 -0.59545508
0.84785096 -0.05 0.0053623211 -3.7991055 1.6604763e-15 -0.62124325
0.84165565 -0.05 0.0043504322 -3.9740713 -6.7116447e-16 -0.64642536
0.8354594 -0.05 0.0033441937 -4.1439203 -4.1806024e-16 -0.67059458
0.82926227 -0.05 0.0023434311 -4.3099481 3.8895754e-16 -0.69387221
0.82306426 -0.05 0.0013481848 -4.4710949 8.7211167e-17 -0.71597264
0.81686537 -0.05 0.00035850107 -4.6278303 1.1957888e-15 -0.7370616
0.81066559 -0.05 -0.00062569896 -4.7776071 -3.6613911e-16 -0.75678176
0.80446493 -0.05 -0.0016044246 -4.921388 5.5884831e-16 -0.77531957
0.79826343 -0.05 -0.0025777073 -5.0596076 1.74001e-15 -0.79267009
0.79206107 -0.05 -0.0035455017 -5.1925177 1.248772e-15 -0.8088616
0.78585788 -0.05 -0.0045078938 -5.3184569 1.3407731e-16 -0.8237796
0.77965384 -0.05 -0.0054648484 -5.4382017 5.1696174e-17 -0.8374129
0.77344895 -0.05 -0.0064163341 -5.5514179 1.3772283e-16 -0.84989469
0.76724325 -0.05 -0.0073624112 -5.6588704 1.3189496e-15 -0.86125028
0.7610367 -0.05 -0.0083030657 -5.7605057 9.7179508e-16 -0.87150689
0.75482935 -0.05 -0.0092382866 -5.8570984 3.6152642e-16 -0.88078617
0.74862118 -0.05 -0.010168046 -5.9486621 -7.5269148e-17 -0.88910495
0.74241219 -0.05 -0.011092329 -6.0352886 -2.1552066e-15 -0.89652897
0.73620238 -0.05 -0.012011121 -6.1168624 -1.0273627e-15 -0.90302973
0.72999175 -0.05 -0.012924385 -6.1932493 5.0902426e-16 -0.90863972
0.72378033 -0.05 -0.013832156 -6.2649063 6.6645684e-16 -0.91345947
0.71756811 -0.05 -0.014734461 -6.3322419 5.9703366e-17 -0.91745639
0.71135507 -0.05 -0.015631128 -6.395266 -3.4792793e-16 -0.92058591
0.70514122 -0.05 -0.016522207 -6.4543312 -1.2325579e-15 -0.92317619
0.69892656 -0.05 -0.017407663 -6.5094298 -6.7019645e-17 -0.92484673
0.6927111 -0.05 -0.018287404 -6.5601259 -7.2202554e-16 -0.92597371
0.68649485 -0.05 -0.019161485 -6.6076147 1.4260481e-15 -0.92642206
0.68027779 -0.05 -0.020029809 -6.6514776 6.7756722e-16 -0.92626845
0.67405992 -0.05 -0.020892384 -6.69237 -5.8772859e-16 -0.92556242
0.66784124 -0.05 -0.021749097 -6.7301319 9.6083805e-16 -0.92421211
0.66162175 -0.05 -0.022599846 -6.7651044 1.3278141e-15 -0.92245179
0.65540145 -0.05 -0.023444715 -6.7979563 -6.8035903e-16 -0.92030851
0.64918034 -0.05 -0.024283618 -6.828549 -9.4336226e-16 -0.91758164
0.64295842 -0.05 -0.02511639 -6.8563738 -6.9527896e-16 -0.91441294
0.63673567 -0.05 -0.025942999 -6.8821834 3.0896704e-17 -0.91088222
0.6305121 -0.05 -0.026763445 -6.9061727 -2.644271e-16 -0.90697963
0.62428772 -0.05 -0.027577591 -6.9281147 -3.6086697e-16 -0.90259984
0.61806249 -0.05 -0.028385354 -6.9478984 1.4297966e-15 -0.8979411
0.61183644 -0.05 -0.029186729 -6.9664039 -1.5984093e-16 -0.89293958
0.60560955 -0.05 -0.029981572 -6.9832314 -2.0689669e-15 -0.88756082
0.59938183 -0.05 -0.030769812 -6.9985079 7.4120212e-16 -0.88190541
0.59315326 -0.05 -0.031551365 -7.0124706 7.7973006e-16 -0.8759267
0.58692384 -0.05 -0.03232614 -7.0255195 -1.466052e-15 -0.86973588
0.58069357 -0.05 -0.033094021 -7.0374822 -1.1312755e-15 -0.8631925
0.57446244 -0.05 -0.033854864 -7.0481002 -3.5015485e-16 -0.85638811
0.56823046 -0.05 -0.034608635 -7.0577654 1.9536222e-17 -0.84936249
0.5619976 -0.05 -0.035355213 -7.0666614 2.6941653e-17 -0.84201054
0.55576386 -0.05 -0.036094438 -7.0744719 7.7421953e-16 -0.83439337
0.54952926 -0.05 -0.036826236 -7.0814772 6.3614005e-16 -0.82655285
0.54329376 -0.05 -0.037550446 -7.0875106 -8.0175042e-16 -0.81836058
0.53705737 -0.05 -0.038266928 -7.0926705 -1.4393185e-15 -0.81000617
0.53082009 -0.05 -0.038975613 -7.0973207 2.578092e-18 -0.80139911
0.52458192 -0.05 -0.039676327 -7.1013804 3.7114634e-16 -0.79252733
0.51834283 -0.05 -0.040368929 -7.1049508 -8.2277351e-18 -0.78344507
0.51210282 -0.05 -0.041053251 -7.1081854 3.9296342e-16 -0.77410136
0.50586191 -0.05 -0.041729157 -7.1109573 -4.1018171e-16 -0.7645965
0.49962008 -0.05 -0.04239652 -7.1135176 -6.726002e-16 -0.7548293
0.49337732 -0.05 -0.043055145 -7.1156062 -2.9078549e-16 -0.74480934
0.48713362 -0.05 -0.043704829 -7.1173033 -8.3961267e-16 -0.73454018
0.48088898 -0.05 -0.044345446 -7.1187402 5.1051481e-17 -0.72413633
0.47464341 -0.05 -0.04497686 -7.1202056 1.2503878e-15 -0.71345247
0.46839688 -0.05 -0.045598817 -7.1212548 -1.4054995e-15 -0.70247132
0.4621494 -0.05 -0.046211106 -7.121989 -2.3528783e-16 -0.69125749
0.45590097 -0.05 -0.046813564 -7.1224975 -8.4529081e-17 -0.67982719
0.44965158 -0.05 -0.047406005 -7.1229448 -4.7176117e-16 -0.66813971
0.44340123 -0.05 -0.047988206 -7.1232768 -1.9416523e-17 -0.65618113
0.43714991 -0.05 -0.048559926 -7.1236806 -6.8712746e-17 -0.64396778
0.43089762 -0.05 -0.049120952 -7.124172 6.2154802e-18 -0.63153906
0.42464436 -0.05 -0.049671089 -7.1250526 -4.0630451e-16 -0.61887662
0.41839013 -0.05 -0.050210084 -7.1262378 6.0152772e-16 -0.60593253
0.41213492 -0.05 -0.050737661 -7.1278423 1.4537745e-16 -0.59273638
0.40587876 -0.05 -0.051253594 -7.1301623 1.0014145e-16 -0.57932881
0.39962162 -0.05 -0.051757599 -7.1332861 -4.1804079e-16 -0.56559669
0.3933635 -0.05 -0.052249364 -7.13696 3.5396876e-16 -0.55164738
0.38710442 -0.05 -0.052728676 -7.1417896 -5.4096826e-16 -0.53751636
0.38084438 -0.05 -0.053195291 -7.1480247 4.111022e-16 -0.52309598
0.37458337 -0.05 -0.053648814 -7.1551038 -2.2227586e-16 -0.5082486
0.36832141 -0.05 -0.054088921 -7.1627396 4.2917166e-16 -0.49318208
0.36205851 -0.05 -0.054515371 -7.1715024 4.7829849e-16 -0.47775197
0.35579467 -0.05 -0.054927826 -7.1809418 4.2989612e-16 -0.46193153
0.34952989 -0.05 -0.055325929 -7.1908494 -2.3500744e-16 -0.4456584
0.3432642 -0.05 -0.055709292 -7.2009724 3.8976331e-16 -0.42893429
0.3369976 -0.05 -0.056077584 -7.2115095 9.0297747e-17 -0.41180763
0.33073012 -0.05 -0.056430414 -7.2221724 3.1663805e-16 -0.39412012
0.32446176 -0.05 -0.056767356 -7.2324572 4.0398262e-16 -0.3759791
0.31819255 -0.05 -0.057088021 -7.2432939 -4.8768566e-16 -0.35737964
0.31192251 -0.05 -0.057391989 -7.2542759 5.4605894e-17 -0.33816596
0.30565166 -0.05 -0.057678828 -7.1941402 3.5527292e-16 -0.31348421
0.29455647 -0.05 0.061962489 -7.1128097 2.6570303e-17 -0.32078647
0.28892496 -0.05 0.061708426 -7.1209368 -8.7151149e-17 -0.33850412
0.2833752 -0.05 0.061443466 -7.2120866 -3.2084292e-16 -0.36232037
0.27790603 -0.05 0.061167772 -7.2943146 -2.3240908e-16 -0.38615599
0.27251634 -0.05 0.060881565 -7.3782894 -1.8354528e-16 -0.41063394
0.26720502 -0.05 0.060585093 -7.4620821 7.2899627e-18 -0.43582268
0.26197097 -0.05 0.060278584 -7.546006 4.7215968e-17 -0.46162445
0.25681312 -0.05 0.05996224 -7.6297917 -7.4321272e-18 -0.4881693
0.2517304 -0.05 0.059636304 -7.7132302 -1.4656616e-16 -0.51525484
0.24672177 -0.05 0.059300978 -7.7964693 -2.5939111e-16 -0.54320371
0.2417862 -0.05 0.058956402 -7.8787886 5.841502e-17 -0.5717184
0.23692268 -0.05 0.058602812 -7.9608121 -2.0320037e-16 -0.60094245
0.2321302 -0.05 0.058240409 -8.0422899 -8.884883e-17 -0.63083197
0.22740776 -0.05 0.057869413 -8.1236785 3.8975665e-16 -0.66143507
0.22275441 -0.05 0.057490029 -8.204698 -6.1747326e-17 -0.69278967
0.21816917 -0.05 0.057102387 -8.2849528 1.9077362e-16 -0.72489678
0.21365112 -0.05 0.056706712 -8.3650432 5.5976266e-16 -0.75764361
0.2091993 -0.05 0.056303189 -8.4453316 3.1903264e-16 -0.79139605
0.20481282 -0.05 0.05589191 -8.5248821 -1.956456e-16 -0.82581122
0.20049077 -0.05 0.055473104 -8.6041459 6.8988364e-17 -0.86092716
0.19623225 -0.05 0.055046947 -8.6832225 3.8522415e-16 -0.89688496
0.19203638 -0.05 0.054613633 -8.7622372 2.6511359e-16 -0.93357012
0.18790229 -0.05 0.054173331 -8.8410779 3.6851e-16 -0.97126814
0.18382915 -0.05 0.053726088 -8.9185255 -2.5217438e-16 -1.0096862
0.17981611 -0.05 0.053272122 -8.9950904 -5.390465e-17 -1.0487147
0.17586235 -0.05 0.052811591 -9.0708343 1.5196602e-16 -1.0887114
0.17196704 -0.05 0.052344619 -9.1450153 5.11975e-16 -1.1292511
0.16812938 -0.05 0.051871383 -9.2183781 -2.6289951e-16 -1.1707285
0.16434859 -0.05 0.051392009 -9.2910743 3.4576357e-17 -1.2130348
0.16062387 -0.05 0.050906604 -9.3629382 1.4912455e-16 -1.2563346
0.15695449 -0.05 0.050415265 -9.4336633 5.8320419e-17 -1.300317
0.15333966 -0.05 0.049918186 -9.5043481 -7.5859771e-17 -1.3453213
0.14977865 -0.05 0.049415451 -9.574607 2.862439e-16 -1.3914269
0.14627074 -0.05 0.048907169 -9.644208 6.2836061e-17 -1.4383616
0.14281519 -0.05 0.04839346 -9.7131502 -7.3505643e-17 -1.4864073
0.1394113 -0.05 0.047874389 -9.7808332 -3.2815996e-16 -1.5352748
0.13605838 -0.05 0.047350084 -9.8474131 -5.4569376e-16 -1.5850208
0.13275573 -0.05 0.046820632 -9.9122467 -2.6828611e-16 -1.6355374
0.12950266 -0.05 0.046286173 -9.9754178 -5.6979716e-16 -1.6868564
0.12629853 -0.05 0.045746789 -10.036815 3.4922846e-16 -1.7393926
0.12314269 -0.05 0.04520248 -10.095617 5.2707976e-16 -1.7925711
0.12003447 -0.05 0.0446534 -10.152533 7.3432416e-16 -1.8465362
0.11697324 -0.05 0.044099642 -10.207822 -1.256942e-16 -1.9017845
0.11395839 -0.05 0.043541199 -10.261262 2.1423745e-16 -1.95806
0.11098932 -0.05 0.042978115 -10.3135 -6.7392805e-17 -2.015331
0.10806541 -0.05 0.042410498 -10.364367 -3.275586e-16 -2.0737036
0.10518609 -0.05 0.041838354 -10.412873 9.3145291e-17 -2.1330804
0.10235077 -0.05 0.041261751 -10.459366 -7.4989795e-17 -2.1931752
0.099558858 -0.05 0.040680818 -10.505229 -2.0930083e-16 -2.2550801
0.096809825 -0.05 0.040095475 -10.548773 -2.1880384e-16 -2.3182322
0.094103122 -0.05 0.039505751 -10.589754 2.7022939e-16 -2.3820106
0.091438194 -0.05 0.038911765 -10.629011 -7.8809336e-16 -2.4474079
0.08881454 -0.05 0.038313409 -10.6647 6.6695406e-17 -2.5138393
0.086231639 -0.05 0.037710725 -10.697146 -3.1028695e-16 -2.580902
0.083688977 -0.05 0.037103756 -10.7266 -7.2887798e-16 -2.6492489
0.081186061 -0.05 0.036492507 -10.752331 -1.5347823e-16 -2.7183955
0.0787224 -0.05 0.035876995 -10.775092 7.5522007e-16 -2.7894879
0.076297552 -0.05 0.035257096 -10.792623 2.0087023e-16 -2.8615595
0.07391106 -0.05 0.03463278 -10.804223 -6.7770919e-16 -2.9340717
0.071562454 -0.05 0.034004098 -10.810287 -5.7637803e-16 -3.0072054
0.069251291 -0.05 0.033371049 -10.811323 5.7486006e-16 -3.0818053
0.06697717 -0.05 0.032733498 -10.807135 5.0897935e-16 -3.1572971
0.064739682 -0.05 0.032091388 -10.79909 4.1446365e-16 -3.2337261
0.062538417 -0.05 0.031444694 -10.788757 3.2851846e-16 -3.3120366
0.060373003 -0.05 0.030793306 -10.775617 5.8376345e-17 -3.3923643
0.058243075 -0.05 0.030137123 -10.760232 4.6628138e-16 -3.4747005
0.056148273 -0.05 0.029476064 -10.743286 1.9103032e-16 -3.559651
0.054088262 -0.05 0.028810011 -10.722006 -4.6566337e-16 -3.6464822
0.052062694 -0.05 0.028138912 -10.69433 3.6519616e-16 -3.7350165
0.050071286 -0.05 0.027462565 -10.655816 1.0480309e-15 -3.8242753
0.048113757 -0.05 0.026780805 -10.60487 -6.8368153e-17 -3.9140083
0.046189806 -0.05 0.02609355 -10.543035 8.8850693e-16 -4.0066189
0.044299189 -0.05 0.025400605 -10.476097 3.6156588e-16 -4.1044738
0.042441679 -0.05 0.024701773 -10.410343 -3.889721e-16 -4.2101168
0.040617098 -0.05 0.023996769 -10.347677 6.4832055e-16 -4.3233209
0.038825255 -0.05 0.023285388 -10.292962 -1.6433999e-16 -4.4450698
0.037065961 -0.05 0.022567471 -10.24413 1.251842e-17 -4.5754254
0.035339096 -0.05 0.021842727 -10.190083 -9.7989139e-16 -4.7120163
0.033644573 -0.05 0.021110843 -10.12759 1.4042304e-16 -4.8547754
0.031982335 -0.05 0.020371501 -10.052589 -6.9576753e-16 -5.0031793
0.030352342 -0.05 0.019624385 -9.9605651 3.7538671e-17 -5.1570561
0.028754607 -0.05 0.01886914 -9.8501027 5.212271e-16 -5.316717
0.027189206 -0.05 0.018105338 -9.723359 5.2331945e-17 -5.4825092
0.025656227 -0.05 0.017332601 -9.5872842 -2.8702704e-18 -5.6564803
0.024155843 -0.05 0.016550452 -9.4491619 1.1257165e-15 -5.8385825
0.02268829 -0.05 0.015758385 -9.3144818 -3.0119875e-16 -6.0281764
0.02125385 -0.05 0.014955904 -9.183205 -7.0436998e-16 -6.2242271
0.019852939 -0.05 0.0141424 -9.0459845 -5.0397707e-16 -6.4218448
0.01848599 -0.05 0.013317321 -8.8918449 6.7254372e-16 -6.6165265
0.017153612 -0.05 0.012479971 -8.7123826 1.8698942e-16 -6.8015861
0.015856502 -0.05 0.011629625 -8.4996648 4.6862964e-16 -6.9708234
0.014595446 -0.05 0.010765575 -8.2510005 4.5843304e-16 -7.1181132
0.013371428 -0.05 0.0098870218 -7.9615882 1.9883535e-16 -7.2356196
0.012185614 -0.05 0.0089931576 -7.6296895 -9.4330425e-16 -7.3189944
0.011039363 -0.05 0.0080831522 -7.251832 3.2175709e-16 -7.3680885
0.0099342708 -0.05 0.0071560823 -6.8246771 1.5909505e-16 -7.3709904
0.0088721333 -0.05 0.0062109756 -6.3455606 -4.1483957e-17 -7.3128617
0.0078550498 -0.05 0.0052470705 -5.8196716 2.7255032e-16 -7.1886215
0.0068855452 -0.05 0.0042636408 -5.2515677 -2.7564082e-16 -6.9869159
0.0059663972 -0.05 0.0032597215 -4.6493206 -3.1590614e-16 -6.6969631
0.0051006928 -0.05 0.0022347204 -4.0229005 8.9888759e-17 -6.3118613
0.0042921682 -0.05 0.0011886365 -3.38626 9.2405944e-17 -5.8261551
0.0035447065 -0.05 0.00012126293 -2.7556547 1.14328e-16 -5.2366634
0.0028623835 -0.05 -0.0009670456 -2.1499621 -1.6802882e-16 -4.5469516
0.0022498764 -0.05 -0.0020747655 -1.5883831 5.3276938e-17 -3.7670406
0.0017116913 -0.05 -0.0032002269 -1.0871112 5.9460647e-17 -2.9081918
0.0012520569 -0.05 -0.0043407461 -0.66940077 -4.1143812e-16 -1.9918488
0.00087472159 -0.05 -0.0054921204 -0.38761933 1.3202712e-16 -1.1189678
0.00058257264 -0.05 -0.0066498209 -0.22108595 -3.8247136e-16 -0.4809143
0.00037713225 -0.05 -0.0078084717 -0.14543781 9.9753961e-17 0.094866301
0.00025822258 -0.05 -0.0089620169 -0.10819958 -2.7000608e-17 0.71055776
0.0002240869 -0.05 -0.010104462 -0.14736393 -1.7498566e-19 1.4484137
0.99619363 -0.05 0.03233312 -0.98733519 3.9401003e-17 0.15735542
0.9899479 -0.05 0.032962931 -1.8064959 -6.216668e-16 0.16786786
0.98370145 -0.05 0.033585719 -1.7387101 -6.6503011e-16 0.17256152
0.97745431 -0.05 0.03420151 -1.8459485 -4.644686e-16 0.18029525
0.97120651 -0.05 0.034810411 -1.898288 -8.8185478e-17 0.1836881
0.96495804 -0.05 0.035412583 -1.9580972 7.4377727e-17 0.18730622
0.95870893 -0.05 0.036008008 -2.0097746 -5.4186489e-16 0.19006755
0.95245919 -0.05 0.03659675 -2.0587515 2.2775396e-16 0.19251376
0.94620884 -0.05 0.037178966 -2.1046493 -3.7180705e-16 0.19458391
0.93995789 -0.05 0.03775474 -2.1482458 2.9404466e-16 0.19636925
0.93370636 -0.05 0.038324078 -2.1898897 2.1308351e-16 0.19787492
0.92745424 -0.05 0.03888704 -2.2296244 -2.7847364e-16 0.19918244
0.92120156 -0.05 0.039443704 -2.2680179 4.4368565e-16 0.2002771
0.91494832 -0.05 0.039994104 -2.3048148 2.5319518e-17 0.20121783
0.90869455 -0.05 0.040538394 -2.3407193 3.7176437e-16 0.2020333
0.90244024 -0.05 0.041076571 -2.3758029 2.113556e-16 0.20270704
0.89618543 -0.05 0.041608667 -2.4097039 -2.8133907e-16 0.20324229
0.88993012 -0.05 0.042134818 -2.4430958 -9.9289454e-17 0.20369982
0.88367429 -0.05 0.042655038 -2.4759015 5.6369628e-16 0.20401505
0.87741798 -0.05 0.043169272 -2.5079958 -5.5629054e-17 0.20425338
0.87116118 -0.05 0.043677657 -2.5395156 -5.1672619e-16 0.20443331
0.86490392 -0.05 0.044180261 -2.5708554 -3.0904119e-16 0.20451203
0.8586462 -0.05 0.044677057 -2.6015405 7.2820771e-17 0.20452898
0.85238803 -0.05 0.045168132 -2.6321054 -4.9570747e-17 0.20451711
0.84612942 -0.05 0.045653548 -2.6624933 -3.5886984e-16 0.20442428
0.83987036 -0.05 0.046133291 -2.6926737 -2.3392247e-17 0.20425082
0.83361088 -0.05 0.046607327 -2.7223539 2.6837925e-17 0.20402534
0.82735097 -0.05 0.047075831 -2.7521413 -5.611098e-16 0.20381607
0.82109065 -0.05 0.047538763 -2.782073 -1.651314e-16 0.20346269
0.81482992 -0.05 0.047996077 -2.8115544 -4.1523725e-17 0.20311792
0.80856879 -0.05 0.048447853 -2.8411852 8.6963393e-17 0.20269795
0.80230726 -0.05 0.0488941 -2.8707895 -3.013553e-17 0.20228179
0.79604534 -0.05 0.049334851 -2.9005431 1.6175154e-16 0.20177441
0.78978303 -0.05 0.04977006 -2.9301367 -7.2831214e-16 0.20123575
0.78352035 -0.05 0.050199817 -2.9599065 3.8164965e-16 0.20067659
0.77725729 -0.05 0.050624083 -2.9899217 6.6686101e-16 0.20003322
0.77099387 -0.05 0.051042828 -3.0197762 -3.1217281e-18 0.19937167
0.76473008 -0.05 0.051456113 -3.0499097 2.4619514e-16 0.19866545
0.75846592 -0.05 0.051863926 -3.0801793 1.762386e-16 0.19791574
0.75220142 -0.05 0.052266254 -3.1107365 3.1449546e-16 0.19712503
0.74593656 -0.05 0.052663072 -3.14144 -5.0295179e-17 0.19627127
0.73967136 -0.05 0.053054363 -3.172335 -5.1866889e-17 0.1953727
0.73340581 -0.05 0.053440113 -3.2034128 7.2675144e-17 0.19441685
0.72713992 -0.05 0.053820287 -3.2346188 4.9132295e-16 0.19341542
0.7208737 -0.05 0.054194917 -3.2660953 -8.9573497e-17 0.19239866
0.71460716 -0.05 0.054564036 -3.2981789 3.7228986e-16 0.19130745
0.70834027 -0.05 0.054927465 -3.3303836 -9.7689657e-17 0.19010691
0.70207306 -0.05 0.055285259 -3.3628634 3.7299076e-16 0.18895801
0.69580553 -0.05 0.055637383 -3.3960036 4.8974993e-17 0.18763568
0.68953768 -0.05 0.055983742 -3.4290827 -1.2753088e-16 0.18633781
0.68326952 -0.05 0.056324394 -3.462871 -4.1201309e-16 0.18494476
0.67700105 -0.05 0.056659241 -3.4969738 1.3638529e-16 0.18350033
0.67073227 -0.05 0.056988294 -3.5317039 3.008653e-16 0.18200265
0.66446318 -0.05 0.057311434 -3.5669118 -1.0798688e-16 0.18036483
0.65819379 -0.05 0.057628563 -3.6021662 2.4614601e-16 0.17870566
0.65192409 -0.05 0.057939765 -3.638229 1.9839155e-16 0.17701374
0.64565411 -0.05 0.058244955 -3.6750288 3.4503982e-16 0.17516866
0.63938382 -0.05 0.058543965 -3.7120256 1.9300132e-16 0.17323526
0.63311324 -0.05 0.058836764 -3.7494114 4.1710132e-17 0.1712417
0.62684237 -0.05 0.059123353 -3.787535 -3.3459891e-17 0.16916614
0.62057123 -0.05 0.059403596 -3.8262038 3.435728e-16 0.16693242
0.61429979 -0.05 0.059677407 -3.8652189 8.7851305e-17 0.1646563
0.60802807 -0.05 0.059944782 -3.9050902 -6.3901048e-17 0.16226204
0.60175608 -0.05 0.060205579 -3.9455668 -2.4336257e-16 0.15973407
0.59548382 -0.05 0.060459726 -3.9866269 -3.4234512e-17 0.15712119
0.58921128 -0.05 0.060707137 -4.0284593 4.6846411e-17 0.15435563
0.58293848 -0.05 0.060947722 -4.0709613 -1.8565445e-17 0.15149263
0.57666542 -0.05 0.061181366 -4.1142808 1.7790606e-16 0.14844249
0.5703921 -0.05 0.061407925 -4.158043 3.4589242e-17 0.14528184
0.56411853 -0.05 0.061627364 -4.2026648 6.881658e-17 0.14199673
0.55784471 -0.05 0.061839563 -4.248101 -1.8820974e-16 0.13851768
0.55157063 -0.05 0.062044359 -4.2941807 9.8803414e-17 0.13488572
0.54529633 -0.05 0.062241682 -4.341159 5.7319932e-17 0.1311015
0.53902178 -0.05 0.062431368 -4.3889275 -2.8821723e-19 0.12708251
0.532747 -0.05 0.06261328 -4.4372092 1.888899e-16 0.12293591
0.52647201 -0.05 0.062787345 -4.4865136 4.2336906e-17 0.11857661
0.52019679 -0.05 0.062953392 -4.5366887 2.7206002e-16 0.11399305
0.51392137 -0.05 0.06311128 -4.5877923 -3.806924e-16 0.10920502
0.50764574 -0.05 0.06326084 -4.6397512 7.7200599e-17 0.10416961
0.50136991 -0.05 0.063401935 -4.6925193 1.3447265e-18 0.098948112
0.49509391 -0.05 0.063534442 -4.7463471 -1.3601587e-16 0.093449277
0.48881772 -0.05 0.063658163 -4.8010249 -2.6340186e-17 0.087672717
0.48254135 -0.05 0.063772895 -4.8564954 -2.226851e-17 0.081613079
0.47626483 -0.05 0.063878514 -4.9129859 -1.0963718e-17 0.075336728
0.46998816 -0.05 0.063974882 -4.970761 1.6890322e-16 0.068722835
0.46371135 -0.05 0.064061748 -5.0294161 -1.3600781e-17 0.061766949
0.45743441 -0.05 0.064138899 -5.0888598 1.8069654e-17 0.054498394
0.45115737 -0.05 0.064206172 -5.1493277 -8.1201082e-18 0.046918197
0.44488022 -0.05 0.064263386 -5.2109546 -1.8119819e-17 0.039014006
0.43860299 -0.05 0.064310314 -5.2736614 2.4867682e-19 0.030912118
0.43232568 -0.05 0.064346716 -5.3372667 1.2674488e-17 0.022396856
0.42604832 -0.05 0.064372382 -5.401915 -4.114943e-18 0.012803468
0.41977093 -0.05 0.064387114 -5.4679232 -4.7974452e-18 0.003184176
0.41349351 -0.05 0.064390663 -5.5350058 -1.6160733e-18 -0.0070537705
0.40721611 -0.05 0.064382752 -5.6030914 -1.2860514e-17 -0.017981512
0.40093874 -0.05 0.064363157 -5.6725586 8.0591239e-19 -0.028790191
0.39466141 -0.05 0.064331594 -5.7432366 -4.8296654e-17 -0.040089069
0.38838416 -0.05 0.064287754 -5.8146211 -1.8094551e-18 -0.051902005
0.382107 -0.05 0.064231422 -5.8870172 -1.0607769e-16 -0.064469696
0.37582997 -0.05 0.06416236 -5.9609687 2.2526998e-17 -0.077658435
0.36955309 -0.05 0.064080169 -6.0361775 -2.250545e-16 -0.091564051
0.36327641 -0.05 0.063984531 -6.1122282 3.3915836e-17 -0.10599658
0.35699996 -0.05 0.063875205 -6.1895475 -2.4567181e-16 -0.12111912
0.35072377 -0.05 0.063751855 -6.2681209 1.57404e-18 -0.13695509
0.34444787 -0.05 0.063614125 -6.347942 -1.1468323e-16 -0.15356508
0.33817232 -0.05 0.063461632 -6.4287676 1.3705797e-16 -0.17094868
0.33189715 -0.05 0.063294045 -6.510868 -5.8531117e-17 -0.18910408
0.32562241 -0.05 0.063110977 -6.5944479 2.6100504e-16 -0.20818683
0.31934816 -0.05 0.062912004 -6.6785238 3.945758e-17 -0.22809611
0.31307445 -0.05 0.062696739 -6.762434 1.7597847e-16 -0.24899056
0.30680132 -0.05 0.062464769 -6.8508127 3.669539e-17 -0.27143154
0.30052886 -0.05 0.062215663 -7.0078896 7.1514445e-17 -0.29770487
