# yPlus  FACE_DATA 448
# x y z  yPlus
0.29967944 -0.05 -0.057936018 22.940551
0.29404679 -0.05 -0.058163245 23.066203
0.28849464 -0.05 -0.058372642 22.97836
0.28302189 -0.05 -0.058564471 22.897644
0.27762744 -0.05 -0.058739043 22.818776
0.27231019 -0.05 -0.058896704 22.743699
0.26706907 -0.05 -0.059037775 22.671853
0.26190303 -0.05 -0.059162545 22.603239
0.25681104 -0.05 -0.05927135 22.53786
0.25179206 -0.05 -0.059364479 22.476185
0.24684508 -0.05 -0.059442159 22.417089
0.24196912 -0.05 -0.059504713 22.360731
0.23716319 -0.05 -0.059552427 22.306723
0.23242633 -0.05 -0.059585604 22.255244
0.22775757 -0.05 -0.059604531 22.207192
0.22315599 -0.05 -0.05960942 22.161725
0.21862065 -0.05 -0.059600574 22.119471
0.21415064 -0.05 -0.059578259 22.08103
0.20974505 -0.05 -0.059542643 22.044544
0.20540303 -0.05 -0.059494032 22.010719
0.20112368 -0.05 -0.059432678 21.979953
0.19690614 -0.05 -0.059358848 21.952284
0.19274957 -0.05 -0.059272786 21.928265
0.18865313 -0.05 -0.059174609 21.906214
0.18461599 -0.05 -0.059064607 21.886242
0.18063736 -0.05 -0.058943008 21.869326
0.17671641 -0.05 -0.058810006 21.853926
0.17285237 -0.05 -0.058665844 21.841604
0.16904446 -0.05 -0.058510717 21.831528
0.16529193 -0.05 -0.058344797 21.824104
0.161594 -0.05 -0.058168246 21.81811
0.15794994 -0.05 -0.057981321 21.814546
0.15435903 -0.05 -0.05778417 21.813703
0.15082055 -0.05 -0.057576963 21.814614
0.14733378 -0.05 -0.057359884 21.818361
0.14389801 -0.05 -0.057133053 21.823671
0.14051258 -0.05 -0.056896662 21.830872
0.13717681 -0.05 -0.056650854 21.840325
0.13389002 -0.05 -0.056395826 21.852032
0.13065155 -0.05 -0.056131719 21.866661
0.12746077 -0.05 -0.055858586 21.881987
0.12431705 -0.05 -0.055576635 21.898486
0.12121974 -0.05 -0.055286018 21.917162
0.11816825 -0.05 -0.054986774 21.936323
0.11516197 -0.05 -0.054679003 21.955972
0.1122003 -0.05 -0.054362861 21.976275
0.10928267 -0.05 -0.054038407 21.997998
0.1064085 -0.05 -0.053705757 22.019712
0.10357721 -0.05 -0.05336509 22.044817
0.10078827 -0.05 -0.053016371 22.071828
0.098041126 -0.05 -0.052659676 22.098609
0.095335244 -0.05 -0.052295171 22.128225
0.092670113 -0.05 -0.051922792 22.15967
0.090045217 -0.05 -0.051542626 22.189974
0.087460048 -0.05 -0.051154757 22.223024
0.084914115 -0.05 -0.050759231 22.255587
0.08240693 -0.05 -0.050356112 22.290982
0.079938043 -0.05 -0.04994531 22.325408
0.077506995 -0.05 -0.049526836 22.35838
0.075113323 -0.05 -0.04910078 22.391015
0.072756585 -0.05 -0.048667178 22.425562
0.070436369 -0.05 -0.048225933 22.460751
0.068152265 -0.05 -0.04777702 22.495151
0.06590386 -0.05 -0.047320449 22.530907
0.063690775 -0.05 -0.046856144 22.567045
0.061512638 -0.05 -0.046384034 22.603262
0.059369083 -0.05 -0.045904069 22.640678
0.057259766 -0.05 -0.045416161 22.680595
0.055184336 -0.05 -0.044920288 22.721975
0.053142494 -0.05 -0.044416272 22.76653
0.051133945 -0.05 -0.043903972 22.806409
0.049158383 -0.05 -0.043383334 22.848777
0.047215549 -0.05 -0.042854184 22.890978
0.0453052 -0.05 -0.042316343 22.936093
0.043427132 -0.05 -0.041769544 22.982477
0.04158114 -0.05 -0.041213599 23.028761
0.039767019 -0.05 -0.040648366 23.077656
0.037984628 -0.05 -0.040073563 23.131346
0.036233852 -0.05 -0.039488889 23.18829
0.034514606 -0.05 -0.03889403 23.253773
0.032826826 -0.05 -0.038288674 23.331052
0.031170492 -0.05 -0.037672467 23.418851
0.029545645 -0.05 -0.037044977 23.506748
0.027952339 -0.05 -0.036405818 23.598913
0.026390706 -0.05 -0.035754502 23.687996
0.024860938 -0.05 -0.035090503 23.763747
0.023363277 -0.05 -0.034413304 23.832541
0.02189808 -0.05 -0.033722261 23.904513
0.020465734 -0.05 -0.033016789 23.984825
0.019066786 -0.05 -0.032296142 24.093086
0.017701869 -0.05 -0.031559538 24.206972
0.016371706 -0.05 -0.030806205 24.344612
0.01507721 -0.05 -0.030035261 24.501878
0.013819471 -0.05 -0.029245804 24.694422
0.012599774 -0.05 -0.02843689 24.929317
0.011419633 -0.05 -0.027607463 25.230247
0.010280749 -0.05 -0.0267564 25.653339
0.0091851517 -0.05 -0.025882765 26.155538
0.0081352946 -0.05 -0.024985617 26.646076
0.0071338629 -0.05 -0.02406376 27.056993
0.0061838816 -0.05 -0.023116338 27.336166
0.0052890735 -0.05 -0.022143033 27.459328
0.0044532897 -0.05 -0.021143308 27.394043
0.0036806215 -0.05 -0.020117168 27.121954
0.002975859 -0.05 -0.019065732 26.613021
0.0023436342 -0.05 -0.017990279 25.818944
0.0017883894 -0.05 -0.016893123 24.691101
0.0013142177 -0.05 -0.015778132 23.212552
0.00092438241 -0.05 -0.014649571 21.376929
0.00062085859 -0.05 -0.013512667 19.191374
0.00040398559 -0.05 -0.012373469 16.635825
0.00027252449 -0.05 -0.011238099 13.698752
0.99623202 -0.05 0.031434587 5.5949827
0.99006277 -0.05 0.030274314 7.2809235
0.98389221 -0.05 0.029120978 7.2671262
0.97772038 -0.05 0.027974554 7.8217117
0.97154728 -0.05 0.026834938 8.1769422
0.96537295 -0.05 0.025701971 8.6210681
0.95919741 -0.05 0.024575671 9.0333973
0.95302067 -0.05 0.023455975 9.4597423
0.94684276 -0.05 0.02234273 9.8840844
0.9406637 -0.05 0.021235852 10.315665
0.93448351 -0.05 0.020135337 10.748012
0.92830221 -0.05 0.019041124 11.185643
0.92211979 -0.05 0.017953139 11.626482
0.9159363 -0.05 0.016871348 12.073529
0.90975175 -0.05 0.015795599 12.520648
0.90356614 -0.05 0.014725895 12.969938
0.89737951 -0.05 0.013662208 13.420031
0.89119187 -0.05 0.012604399 13.877442
0.88500323 -0.05 0.011552456 14.326404
0.87881358 -0.05 0.010506437 14.772749
0.87262296 -0.05 0.0094662053 15.210399
0.86643138 -0.05 0.0084316922 15.646051
0.86023883 -0.05 0.007402927 16.064533
0.85404536 -0.05 0.006379824 16.47288
0.84785096 -0.05 0.0053623211 16.867009
0.84165565 -0.05 0.0043504322 17.255877
0.8354594 -0.05 0.0033441937 17.621323
0.82926227 -0.05 0.0023434311 17.972147
0.82306426 -0.05 0.0013481848 18.303955
0.81686537 -0.05 0.00035850107 18.623323
0.81066559 -0.05 -0.00062569896 18.920905
0.80446493 -0.05 -0.0016044246 19.202475
0.79826343 -0.05 -0.0025777073 19.468535
0.79206107 -0.05 -0.0035455017 19.723392
0.78585788 -0.05 -0.0045078938 19.959852
0.77965384 -0.05 -0.0054648484 20.18243
0.77344895 -0.05 -0.0064163341 20.389886
0.76724325 -0.05 -0.0073624112 20.585117
0.7610367 -0.05 -0.0083030657 20.767537
0.75482935 -0.05 -0.0092382866 20.939351
0.74862118 -0.05 -0.010168046 21.100766
0.74241219 -0.05 -0.011092329 21.25208
0.73620238 -0.05 -0.012011121 21.393612
0.72999175 -0.05 -0.012924385 21.525084
0.72378033 -0.05 -0.013832156 21.647766
0.71756811 -0.05 -0.014734461 21.76199
0.71135507 -0.05 -0.015631128 21.868846
0.70514122 -0.05 -0.016522207 21.96813
0.69892656 -0.05 -0.017407663 22.060707
0.6927111 -0.05 -0.018287404 22.144617
0.68649485 -0.05 -0.019161485 22.223458
0.68027779 -0.05 -0.020029809 22.295743
0.67405992 -0.05 -0.020892384 22.363154
0.66784124 -0.05 -0.021749097 22.424878
0.66162175 -0.05 -0.022599846 22.482108
0.65540145 -0.05 -0.023444715 22.535483
0.64918034 -0.05 -0.024283618 22.585351
0.64295842 -0.05 -0.02511639 22.630097
0.63673567 -0.05 -0.025942999 22.671885
0.6305121 -0.05 -0.026763445 22.710292
0.62428772 -0.05 -0.027577591 22.745662
0.61806249 -0.05 -0.028385354 22.777149
0.61183644 -0.05 -0.029186729 22.806842
0.60560955 -0.05 -0.029981572 22.833564
0.59938183 -0.05 -0.030769812 22.857941
0.59315326 -0.05 -0.031551365 22.879695
0.58692384 -0.05 -0.03232614 22.900264
0.58069357 -0.05 -0.033094021 22.918917
0.57446244 -0.05 -0.033854864 22.935542
0.56823046 -0.05 -0.034608635 22.950285
0.5619976 -0.05 -0.035355213 22.964054
0.55576386 -0.05 -0.036094438 22.976023
0.54952926 -0.05 -0.036826236 22.986902
0.54329376 -0.05 -0.037550446 22.995873
0.53705737 -0.05 -0.038266928 23.003618
0.53082009 -0.05 -0.038975613 23.010421
0.52458192 -0.05 -0.039676327 23.016484
0.51834283 -0.05 -0.040368929 23.021571
0.51210282 -0.05 -0.041053251 23.026327
0.50586191 -0.05 -0.041729157 23.030192
0.49962008 -0.05 -0.04239652 23.033951
0.49337732 -0.05 -0.043055145 23.036521
0.48713362 -0.05 -0.043704829 23.03872
0.48088898 -0.05 -0.044345446 23.040345
0.47464341 -0.05 -0.04497686 23.042228
0.46839688 -0.05 -0.045598817 23.043253
0.4621494 -0.05 -0.046211106 23.044028
0.45590097 -0.05 -0.046813564 23.044223
0.44965158 -0.05 -0.047406005 23.044513
0.44340123 -0.05 -0.047988206 23.044275
0.43714991 -0.05 -0.048559926 23.044412
0.43089762 -0.05 -0.049120952 23.044523
0.42464436 -0.05 -0.049671089 23.045513
0.41839013 -0.05 -0.050210084 23.046863
0.41213492 -0.05 -0.050737661 23.049033
0.40587876 -0.05 -0.051253594 23.052135
0.39962162 -0.05 -0.051757599 23.056561
0.3933635 -0.05 -0.052249364 23.06174
0.38710442 -0.05 -0.052728676 23.068884
0.38084438 -0.05 -0.053195291 23.078221
0.37458337 -0.05 -0.053648814 23.088997
0.36832141 -0.05 -0.054088921 23.100365
0.36205851 -0.05 -0.054515371 23.113743
0.35579467 -0.05 -0.054927826 23.128133
0.34952989 -0.05 -0.055325929 23.14331
0.3432642 -0.05 -0.055709292 23.158615
0.3369976 -0.05 -0.056077584 23.174647
0.33073012 -0.05 -0.056430414 23.190786
0.32446176 -0.05 -0.056767356 23.206273
0.31819255 -0.05 -0.057088021 23.222468
0.31192251 -0.05 -0.057391989 23.241326
0.30565166 -0.05 -0.057678828 23.015275
0.29455647 -0.05 0.061962489 23.105541
0.28892496 -0.05 0.061708426 22.904603
0.2833752 -0.05 0.061443466 22.948452
0.27790603 -0.05 0.061167772 22.976866
0.27251634 -0.05 0.060881565 23.008827
0.26720502 -0.05 0.060585093 23.041441
0.26197097 -0.05 0.060278584 23.075052
0.25681312 -0.05 0.05996224 23.109419
0.2517304 -0.05 0.059636304 23.144043
0.24672177 -0.05 0.059300978 23.179503
0.2417862 -0.05 0.058956402 23.2145
0.23692268 -0.05 0.058602812 23.250059
0.2321302 -0.05 0.058240409 23.285791
0.22740776 -0.05 0.057869413 23.322533
0.22275441 -0.05 0.057490029 23.359824
0.21816917 -0.05 0.057102387 23.397153
0.21365112 -0.05 0.056706712 23.43523
0.2091993 -0.05 0.056303189 23.474791
0.20481282 -0.05 0.05589191 23.514412
0.20049077 -0.05 0.055473104 23.554695
0.19623225 -0.05 0.055046947 23.595854
0.19203638 -0.05 0.054613633 23.637998
0.18790229 -0.05 0.054173331 23.681086
0.18382915 -0.05 0.053726088 23.723521
0.17981611 -0.05 0.053272122 23.765663
0.17586235 -0.05 0.052811591 23.808101
0.17196704 -0.05 0.052344619 23.849381
0.16812938 -0.05 0.051871383 23.890909
0.16434859 -0.05 0.051392009 23.932465
0.16062387 -0.05 0.050906604 23.974406
0.15695449 -0.05 0.050415265 24.015826
0.15333966 -0.05 0.049918186 24.058119
0.14977865 -0.05 0.049415451 24.101353
0.14627074 -0.05 0.048907169 24.144565
0.14281519 -0.05 0.04839346 24.188215
0.1394113 -0.05 0.047874389 24.231275
0.13605838 -0.05 0.047350084 24.273832
0.13275573 -0.05 0.046820632 24.315509
0.12950266 -0.05 0.046286173 24.355697
0.12629853 -0.05 0.045746789 24.395226
0.12314269 -0.05 0.04520248 24.432619
0.12003447 -0.05 0.0446534 24.468304
0.11697324 -0.05 0.044099642 24.503278
0.11395839 -0.05 0.043541199 24.536965
0.11098932 -0.05 0.042978115 24.570328
0.10806541 -0.05 0.042410498 24.602824
0.10518609 -0.05 0.041838354 24.634163
0.10235077 -0.05 0.041261751 24.663118
0.099558858 -0.05 0.040680818 24.692345
0.096809825 -0.05 0.040095475 24.720615
0.094103122 -0.05 0.039505751 24.7458
0.091438194 -0.05 0.038911765 24.770074
0.08881454 -0.05 0.038313409 24.792277
0.086231639 -0.05 0.037710725 24.810358
0.083688977 -0.05 0.037103756 24.826924
0.081186061 -0.05 0.036492507 24.839042
0.0787224 -0.05 0.035876995 24.84987
0.076297552 -0.05 0.035257096 24.856124
0.07391106 -0.05 0.03463278 24.856681
0.071562454 -0.05 0.034004098 24.851274
0.069251291 -0.05 0.033371049 24.84184
0.06697717 -0.05 0.032733498 24.828444
0.064739682 -0.05 0.032091388 24.811767
0.062538417 -0.05 0.031444694 24.794029
0.060373003 -0.05 0.030793306 24.774908
0.058243075 -0.05 0.030137123 24.755062
0.056148273 -0.05 0.029476064 24.736066
0.054088262 -0.05 0.028810011 24.714926
0.052062694 -0.05 0.028138912 24.687621
0.050071286 -0.05 0.027462565 24.65308
0.048113757 -0.05 0.026780805 24.605911
0.046189806 -0.05 0.02609355 24.551644
0.044299189 -0.05 0.025400605 24.495799
0.042441679 -0.05 0.024701773 24.447787
0.040617098 -0.05 0.023996769 24.409868
0.038825255 -0.05 0.023285388 24.385845
0.037065961 -0.05 0.022567471 24.374529
0.035339096 -0.05 0.021842727 24.366519
0.033644573 -0.05 0.021110843 24.357626
0.031982335 -0.05 0.020371501 24.345636
0.030352342 -0.05 0.019624385 24.32519
0.028754607 -0.05 0.01886914 24.298308
0.027189206 -0.05 0.018105338 24.267261
0.025656227 -0.05 0.017332601 24.240651
0.024155843 -0.05 0.016550452 24.228937
0.02268829 -0.05 0.015758385 24.236313
0.02125385 -0.05 0.014955904 24.264825
0.019852939 -0.05 0.0141424 24.305215
0.01848599 -0.05 0.013317321 24.343114
0.017153612 -0.05 0.012479971 24.374366
0.015856502 -0.05 0.011629625 24.382772
0.014595446 -0.05 0.010765575 24.368456
0.013371428 -0.05 0.0098870218 24.318954
0.012185614 -0.05 0.0089931576 24.232882
0.011039363 -0.05 0.0080831522 24.103567
0.0099342708 -0.05 0.0071560823 23.921995
0.0088721333 -0.05 0.0062109756 23.665011
0.0078550498 -0.05 0.0052470705 23.327814
0.0068855452 -0.05 0.0042636408 22.892388
0.0059663972 -0.05 0.0032597215 22.341963
0.0051006928 -0.05 0.0022347204 21.647297
0.0042921682 -0.05 0.0011886365 20.786994
0.0035447065 -0.05 0.00012126293 19.722525
0.0028623835 -0.05 -0.0009670456 18.413965
0.0022498764 -0.05 -0.0020747655 16.809112
0.0017116913 -0.05 -0.0032002269 14.826933
0.0012520569 -0.05 -0.0043407461 12.332005
0.00087472159 -0.05 -0.0054921204 9.3118612
0.00058257264 -0.05 -0.0066498209 6.1960682
0.00037713225 -0.05 -0.0078084717 2.8956304
0.00025822258 -0.05 -0.0089620169 7.2788125
0.0002240869 -0.05 -0.010104462 10.392377
0.99619363 -0.05 0.03233312 7.1570161
0.9899479 -0.05 0.032962931 11.606107
0.98370145 -0.05 0.033585719 11.360695
0.97745431 -0.05 0.03420151 11.707201
0.97120651 -0.05 0.034810411 11.872457
0.96495804 -0.05 0.035412583 12.05848
0.95870893 -0.05 0.036008008 12.216737
0.95245919 -0.05 0.03659675 12.364962
0.94620884 -0.05 0.037178966 12.502087
0.93995789 -0.05 0.03775474 12.631112
0.93370636 -0.05 0.038324078 12.752972
0.92745424 -0.05 0.03888704 12.868243
0.92120156 -0.05 0.039443704 12.978586
0.91494832 -0.05 0.039994104 13.083584
0.90869455 -0.05 0.040538394 13.18506
0.90244024 -0.05 0.041076571 13.283549
0.89618543 -0.05 0.041608667 13.378437
0.88993012 -0.05 0.042134818 13.470833
0.88367429 -0.05 0.042655038 13.561225
0.87741798 -0.05 0.043169272 13.648877
0.87116118 -0.05 0.043677657 13.734644
0.86490392 -0.05 0.044180261 13.819119
0.8586462 -0.05 0.044677057 13.901415
0.85238803 -0.05 0.045168132 13.9828
0.84612942 -0.05 0.045653548 14.063542
0.83987036 -0.05 0.046133291 14.143058
0.83361088 -0.05 0.046607327 14.220931
0.82735097 -0.05 0.047075831 14.298495
0.82109065 -0.05 0.047538763 14.376226
0.81482992 -0.05 0.047996077 14.452141
0.80856879 -0.05 0.048447853 14.528135
0.80230726 -0.05 0.0488941 14.603571
0.79604534 -0.05 0.049334851 14.679312
0.78978303 -0.05 0.04977006 14.754064
0.78352035 -0.05 0.050199817 14.8289
0.77725729 -0.05 0.050624083 14.903938
0.77099387 -0.05 0.051042828 14.978279
0.76473008 -0.05 0.051456113 15.052875
0.75846592 -0.05 0.051863926 15.127501
0.75220142 -0.05 0.052266254 15.202377
0.74593656 -0.05 0.052663072 15.277386
0.73967136 -0.05 0.053054363 15.352374
0.73340581 -0.05 0.053440113 15.427439
0.72713992 -0.05 0.053820287 15.502419
0.7208737 -0.05 0.054194917 15.577723
0.71460716 -0.05 0.054564036 15.654043
0.70834027 -0.05 0.054927465 15.730393
0.70207306 -0.05 0.055285259 15.806892
0.69580553 -0.05 0.055637383 15.88479
0.68953768 -0.05 0.055983742 15.962034
0.68326952 -0.05 0.056324394 16.040637
0.67700105 -0.05 0.056659241 16.119518
0.67073227 -0.05 0.056988294 16.199482
0.66446318 -0.05 0.057311434 16.280199
0.65819379 -0.05 0.057628563 16.360556
0.65192409 -0.05 0.057939765 16.442318
0.64565411 -0.05 0.058244955 16.525433
0.63938382 -0.05 0.058543965 16.608534
0.63311324 -0.05 0.058836764 16.692178
0.62684237 -0.05 0.059123353 16.776929
0.62057123 -0.05 0.059403596 16.862547
0.61429979 -0.05 0.059677407 16.948452
0.60802807 -0.05 0.059944782 17.035823
0.60175608 -0.05 0.060205579 17.124059
0.59548382 -0.05 0.060459726 17.213148
0.58921128 -0.05 0.060707137 17.303453
0.58293848 -0.05 0.060947722 17.394751
0.57666542 -0.05 0.061181366 17.487312
0.5703921 -0.05 0.061407925 17.580345
0.56411853 -0.05 0.061627364 17.67467
0.55784471 -0.05 0.061839563 17.77022
0.55157063 -0.05 0.062044359 17.866581
0.54529633 -0.05 0.062241682 17.964344
0.53902178 -0.05 0.062431368 18.063228
0.532747 -0.05 0.06261328 18.16266
0.52647201 -0.05 0.062787345 18.263623
0.52019679 -0.05 0.062953392 18.365838
0.51392137 -0.05 0.06311128 18.469333
0.50764574 -0.05 0.06326084 18.573955
0.50136991 -0.05 0.063401935 18.679667
0.49509391 -0.05 0.063534442 18.786986
0.48881772 -0.05 0.063658163 18.895283
0.48254135 -0.05 0.063772895 19.004603
0.47626483 -0.05 0.063878514 19.115249
0.46998816 -0.05 0.063974882 19.227803
0.46371135 -0.05 0.064061748 19.341397
0.45743441 -0.05 0.064138899 19.455911
0.45115737 -0.05 0.064206172 19.571668
0.44488022 -0.05 0.064263386 19.689004
0.43860299 -0.05 0.064310314 19.807598
0.43232568 -0.05 0.064346716 19.927239
0.42604832 -0.05 0.064372382 20.048225
0.41977093 -0.05 0.064387114 20.170913
0.41349351 -0.05 0.064390663 20.294823
0.40721611 -0.05 0.064382752 20.419844
0.40093874 -0.05 0.064363157 20.546448
0.39466141 -0.05 0.064331594 20.674585
0.38838416 -0.05 0.064287754 20.803169
0.382107 -0.05 0.064231422 20.932924
0.37582997 -0.05 0.06416236 21.064594
0.36955309 -0.05 0.064080169 21.197709
0.36327641 -0.05 0.063984531 21.331375
0.35699996 -0.05 0.063875205 21.466444
0.35072377 -0.05 0.063751855 21.602797
0.34444787 -0.05 0.063614125 21.740521
0.33817232 -0.05 0.063461632 21.879067
0.33189715 -0.05 0.063294045 22.018933
0.32562241 -0.05 0.063110977 22.160282
0.31934816 -0.05 0.062912004 22.301703
0.31307445 -0.05 0.062696739 22.441878
0.30680132 -0.05 0.062464769 22.590866
0.30052886 -0.05 0.062215663 22.972995
