# p  FACE_DATA 448
# x y z  p
0.29468942 -0.05 -0.061866669 99576.234
0.28905738 -0.05 -0.061624699 99572.834
0.28350705 -0.05 -0.061371657 99570.599
0.27803731 -0.05 -0.061107707 99568.372
0.27264702 -0.05 -0.060833074 99566.249
0.26733508 -0.05 -0.060548008 99564.283
0.26210038 -0.05 -0.06025274 99562.408
0.25694185 -0.05 -0.059947472 99560.734
0.25185846 -0.05 -0.059632451 99559.061
0.24684911 -0.05 -0.05930788 99557.617
0.24191281 -0.05 -0.058973904 99556.3
0.23704855 -0.05 -0.058630758 99555.133
0.2322553 -0.05 -0.058278647 99554.068
0.22753208 -0.05 -0.057917793 99553.109
0.22287791 -0.05 -0.057548401 99552.273
0.21829186 -0.05 -0.057170606 99551.657
0.21377297 -0.05 -0.056784634 99551.047
0.2093203 -0.05 -0.05639067 99550.647
0.20493294 -0.05 -0.055988812 99550.433
0.20061 -0.05 -0.055579288 99550.34
0.19635058 -0.05 -0.055162276 99550.424
0.19215378 -0.05 -0.054737974 99550.532
0.18801877 -0.05 -0.05430655 99550.819
0.18394468 -0.05 -0.053868054 99551.356
0.17993067 -0.05 -0.053422706 99551.905
0.17597593 -0.05 -0.052970667 99552.741
0.17207962 -0.05 -0.05251206 99553.675
0.16824096 -0.05 -0.052047066 99554.801
0.16445914 -0.05 -0.051575811 99556.01
0.1607334 -0.05 -0.051098405 99557.471
0.15706296 -0.05 -0.050614948 99559.061
0.15344707 -0.05 -0.050125633 99560.723
0.149885 -0.05 -0.049630544 99562.624
0.146376 -0.05 -0.049129797 99564.639
0.14291936 -0.05 -0.04862351 99566.909
0.13951437 -0.05 -0.048111749 99569.39
0.13616032 -0.05 -0.047594644 99572.056
0.13285654 -0.05 -0.047072285 99574.956
0.12960234 -0.05 -0.046544813 99577.872
0.12639705 -0.05 -0.046012311 99581.055
0.12324004 -0.05 -0.045474779 99584.486
0.12013065 -0.05 -0.044932375 99587.993
0.11706824 -0.05 -0.044385192 99591.759
0.11405219 -0.05 -0.043833223 99595.797
0.11108192 -0.05 -0.043276517 99600.082
0.10815681 -0.05 -0.042715179 99604.546
0.10527627 -0.05 -0.04214922 99609.418
0.10243972 -0.05 -0.041578706 99614.334
0.099646563 -0.05 -0.04100377 99619.366
0.096896277 -0.05 -0.040424332 99624.845
0.094188313 -0.05 -0.039840421 99630.493
0.091522116 -0.05 -0.039252158 99636.388
0.088897183 -0.05 -0.038659438 99642.813
0.086312994 -0.05 -0.038062302 99649.286
0.083769034 -0.05 -0.037460794 99656.196
0.081264811 -0.05 -0.03685492 99663.281
0.078799834 -0.05 -0.0362447 99670.79
0.076373661 -0.05 -0.03563001 99678.748
0.073985834 -0.05 -0.03501082 99687.069
0.071635884 -0.05 -0.034387183 99695.583
0.069323367 -0.05 -0.033759098 99704.518
0.067047882 -0.05 -0.033126432 99714.003
0.06480902 -0.05 -0.032489127 99723.79
0.062606371 -0.05 -0.031847162 99733.969
0.060439564 -0.05 -0.031200426 99744.659
0.058308232 -0.05 -0.030548817 99755.916
0.056212015 -0.05 -0.029892257 99767.783
0.054150579 -0.05 -0.02923063 99780.262
0.052123573 -0.05 -0.028563883 99793.106
0.050130718 -0.05 -0.027891814 99806.866
0.04817173 -0.05 -0.027214258 99821.194
0.046246308 -0.05 -0.026531136 99836.339
0.044354207 -0.05 -0.025842253 99852.134
0.0424952 -0.05 -0.025147411 99868.839
0.04066911 -0.05 -0.024446325 99886.596
0.038875743 -0.05 -0.023738794 99905.226
0.037114912 -0.05 -0.023024658 99924.759
0.035386495 -0.05 -0.022303623 99945.495
0.033690404 -0.05 -0.02157538 99967.419
0.032026582 -0.05 -0.020839609 99990.722
0.030394989 -0.05 -0.020095995 100015.31
0.028795635 -0.05 -0.019344182 100041.48
0.027228597 -0.05 -0.018583743 100069.27
0.025693963 -0.05 -0.0178143 100098.71
0.024191904 -0.05 -0.017035375 100130.14
0.022722652 -0.05 -0.016246461 100163.57
0.021286493 -0.05 -0.015447061 100199.25
0.019883838 -0.05 -0.014636567 100237.45
0.018515121 -0.05 -0.013814426 100277.89
0.017180948 -0.05 -0.012979939 100321.12
0.015882014 -0.05 -0.01213238 100367.66
0.014619105 -0.05 -0.011271041 100417.48
0.013393204 -0.05 -0.010395117 100471
0.012205472 -0.05 -0.009503801 100528.33
0.01105727 -0.05 -0.0085962591 100589.47
0.009950191 -0.05 -0.0076715643 100655.14
0.0088860262 -0.05 -0.0067287406 100725.38
0.0078668752 -0.05 -0.0057670217 100799.94
0.0068952612 -0.05 -0.004785676 100878.79
0.0059739595 -0.05 -0.0037837327 100961.81
0.0051060561 -0.05 -0.002760593 101047.99
0.004295287 -0.05 -0.0017162477 101136.53
0.0035455351 -0.05 -0.00065048159 101225.79
0.0028608767 -0.05 0.00043635929 101313.34
0.0022459924 -0.05 0.0015427614 101394.89
0.0017053919 -0.05 0.0026670645 101465.89
0.0012433094 -0.05 0.0038065941 101524.73
0.00086350259 -0.05 0.0049571555 101565.6
0.00056886836 -0.05 0.0061142259 101582.77
0.00036094045 -0.05 0.0072724329 101575.16
0.00023955402 -0.05 0.0084257202 101541.06
0.00020296523 -0.05 0.0095680889 101479.17
0.99626134 -0.05 -0.030730727 100183.26
0.99001698 -0.05 -0.031373949 100187.54
0.98377188 -0.05 -0.032010148 100162.44
0.97752608 -0.05 -0.032639351 100147.62
0.97127959 -0.05 -0.033261668 100130.97
0.96503244 -0.05 -0.033877256 100116.35
0.95878462 -0.05 -0.034486098 100102.38
0.95253616 -0.05 -0.03508826 100089.35
0.94628707 -0.05 -0.035683896 100077.05
0.94003737 -0.05 -0.036273091 100065.42
0.93378707 -0.05 -0.036855851 100054.42
0.92753618 -0.05 -0.037432238 100043.97
0.9212847 -0.05 -0.038002327 100034.08
0.91503267 -0.05 -0.038566154 100024.52
0.90878008 -0.05 -0.039123872 100015.43
0.90252695 -0.05 -0.039675477 100006.71
0.89627329 -0.05 -0.040221002 99998.392
0.89001911 -0.05 -0.040760585 99990.299
0.88376443 -0.05 -0.041294238 99982.565
0.87750923 -0.05 -0.041821904 99975.107
0.87125354 -0.05 -0.042343723 99967.889
0.86499738 -0.05 -0.042859763 99960.841
0.85874074 -0.05 -0.043369995 99954.046
0.85248363 -0.05 -0.043874506 99947.416
0.84622608 -0.05 -0.04437336 99940.988
0.83996807 -0.05 -0.044866544 99934.706
0.83370962 -0.05 -0.045354019 99928.649
0.82745072 -0.05 -0.045835964 99922.662
0.82119141 -0.05 -0.046312338 99916.927
0.81493168 -0.05 -0.046783095 99911.197
0.80867153 -0.05 -0.047248314 99905.675
0.80241098 -0.05 -0.047708005 99900.208
0.79615002 -0.05 -0.048162202 99894.902
0.78988866 -0.05 -0.048610858 99889.667
0.78362691 -0.05 -0.049054061 99884.511
0.77736479 -0.05 -0.049491775 99879.477
0.77110227 -0.05 -0.049923969 99874.518
0.76483938 -0.05 -0.050350704 99869.6
0.75857611 -0.05 -0.050771966 99864.773
0.75231249 -0.05 -0.051187745 99860.001
0.7460485 -0.05 -0.051598015 99855.302
0.73978415 -0.05 -0.052002758 99850.632
0.73351945 -0.05 -0.052401962 99846.041
0.72725439 -0.05 -0.052795589 99841.525
0.72098899 -0.05 -0.053183675 99837.035
0.71472325 -0.05 -0.053566248 99832.527
0.70845716 -0.05 -0.053943135 99828.169
0.70219074 -0.05 -0.054314386 99823.74
0.69592398 -0.05 -0.054679967 99819.46
0.68965688 -0.05 -0.055039784 99815.128
0.68338947 -0.05 -0.055393895 99810.869
0.67712173 -0.05 -0.055742201 99806.635
0.67085367 -0.05 -0.056084714 99802.397
0.66458529 -0.05 -0.056421316 99798.218
0.65831659 -0.05 -0.056751906 99794.072
0.65204758 -0.05 -0.057076571 99789.885
0.64577826 -0.05 -0.057395224 99785.755
0.63950863 -0.05 -0.057707698 99781.651
0.63323869 -0.05 -0.058013961 99777.571
0.62696846 -0.05 -0.058314015 99773.475
0.62069792 -0.05 -0.058607723 99769.455
0.61442709 -0.05 -0.058895 99765.382
0.60815597 -0.05 -0.059175843 99761.332
0.60188455 -0.05 -0.059450108 99757.318
0.59561285 -0.05 -0.059717722 99753.294
0.58934086 -0.05 -0.059978601 99749.289
0.58306859 -0.05 -0.060232655 99745.26
0.57679604 -0.05 -0.060479769 99741.281
0.57052322 -0.05 -0.060719797 99737.319
0.56425013 -0.05 -0.060952708 99733.315
0.55797678 -0.05 -0.061178378 99729.347
0.55170316 -0.05 -0.061396646 99725.38
0.54542929 -0.05 -0.061607441 99721.392
0.53915517 -0.05 -0.061810601 99717.457
0.53288081 -0.05 -0.062005986 99713.507
0.5266062 -0.05 -0.062193525 99709.559
0.52033136 -0.05 -0.062373048 99705.627
0.51405628 -0.05 -0.06254441 99701.655
0.50778099 -0.05 -0.062707446 99697.749
0.50150548 -0.05 -0.062862016 99693.804
0.49522978 -0.05 -0.063007999 99689.869
0.48895386 -0.05 -0.063145197 99685.931
0.48267775 -0.05 -0.063273406 99682.058
0.47640148 -0.05 -0.063392503 99678.139
0.47012503 -0.05 -0.063502348 99674.229
0.46384842 -0.05 -0.063602693 99670.327
0.45757166 -0.05 -0.063693322 99666.472
0.45129478 -0.05 -0.063774075 99662.603
0.44501776 -0.05 -0.063844768 99658.736
0.43874064 -0.05 -0.063905174 99654.874
0.43246343 -0.05 -0.063955055 99651.069
0.42618614 -0.05 -0.063994201 99647.274
0.4199088 -0.05 -0.064022412 99643.471
0.41363141 -0.05 -0.064039441 99639.676
0.40735401 -0.05 -0.06404501 99635.936
0.4010766 -0.05 -0.064038895 99632.153
0.39479922 -0.05 -0.064020811 99628.457
0.38852188 -0.05 -0.06399045 99624.807
0.38224462 -0.05 -0.063947598 99621.164
0.37596746 -0.05 -0.063892015 99617.505
0.36969043 -0.05 -0.063823303 99613.988
0.36341355 -0.05 -0.063741143 99610.451
0.35713688 -0.05 -0.063645294 99606.949
0.35086043 -0.05 -0.063535421 99603.465
0.34458426 -0.05 -0.063411169 99600.071
0.33830839 -0.05 -0.063272151 99596.744
0.33203287 -0.05 -0.06311804 99593.427
0.32575776 -0.05 -0.062948446 99590.207
0.3194831 -0.05 -0.062762947 99587.11
0.31320893 -0.05 -0.062561153 99584.213
0.30693532 -0.05 -0.062342654 99581.145
0.30066235 -0.05 -0.062107018 99576.952
0.29955491 -0.05 0.058042563 99359.023
0.29392178 -0.05 0.058257694 99351.791
0.2883692 -0.05 0.058455169 99344.043
0.28289606 -0.05 0.058635244 99336.538
0.27750125 -0.05 0.058798232 99329.06
0.27218367 -0.05 0.058944475 99321.715
0.26694226 -0.05 0.059074291 99314.424
0.26177596 -0.05 0.059187969 99307.29
0.25668374 -0.05 0.059285839 99300.126
0.25166458 -0.05 0.059368189 99293.125
0.24671745 -0.05 0.059435247 99286.209
0.24184136 -0.05 0.059487332 99279.389
0.23703535 -0.05 0.059524725 99272.613
0.23229842 -0.05 0.059547731 99265.889
0.22762963 -0.05 0.059556633 99259.259
0.22302804 -0.05 0.05955164 99252.772
0.21849273 -0.05 0.059533056 99246.233
0.21402278 -0.05 0.059501141 99239.86
0.2096173 -0.05 0.059456066 99233.605
0.20527538 -0.05 0.059398131 99227.395
0.20099617 -0.05 0.059327588 99221.312
0.1967788 -0.05 0.059244702 99215.204
0.19262243 -0.05 0.059149713 99209.217
0.1885262 -0.05 0.059042741 99203.397
0.1844893 -0.05 0.05892407 99197.522
0.18051094 -0.05 0.058793928 99191.832
0.17659029 -0.05 0.058652507 99186.151
0.17272657 -0.05 0.058500048 99180.591
0.16891901 -0.05 0.058336745 99175.054
0.16516683 -0.05 0.058162767 99169.688
0.1614693 -0.05 0.057978275 99164.38
0.15782566 -0.05 0.057783526 99159.096
0.15423518 -0.05 0.057578664 99153.987
0.15069714 -0.05 0.05736386 99148.878
0.14721085 -0.05 0.057139294 99143.884
0.14377558 -0.05 0.056905087 99138.953
0.14039066 -0.05 0.056661426 99134.102
0.13705542 -0.05 0.056408455 99129.375
0.13376918 -0.05 0.056146371 99124.603
0.13053129 -0.05 0.05587531 99120.022
0.12734111 -0.05 0.055595326 99115.608
0.124198 -0.05 0.055306626 99111.152
0.12110132 -0.05 0.055009359 99106.804
0.11805047 -0.05 0.054703562 99102.565
0.11504486 -0.05 0.054389336 99098.404
0.11208388 -0.05 0.054066836 99094.274
0.10916695 -0.05 0.053736117 99090.423
0.10629351 -0.05 0.053397295 99086.52
0.10346296 -0.05 0.05305055 99082.675
0.10067477 -0.05 0.052695843 99079.111
0.097928399 -0.05 0.05233325 99075.51
0.095223305 -0.05 0.051962935 99071.977
0.09255898 -0.05 0.051584834 99068.783
0.089934907 -0.05 0.051199032 99065.52
0.087350578 -0.05 0.050805612 99062.505
0.084805499 -0.05 0.050404621 99059.387
0.082299186 -0.05 0.049996119 99056.464
0.079831186 -0.05 0.049580017 99053.81
0.077401042 -0.05 0.049156324 99051.402
0.075008291 -0.05 0.048725129 99049.043
0.07265249 -0.05 0.048286468 99046.836
0.070333227 -0.05 0.047840241 99044.865
0.068050091 -0.05 0.047386424 99042.951
0.065802672 -0.05 0.046925026 99041.153
0.063590589 -0.05 0.04645597 99039.607
0.06141347 -0.05 0.045979184 99038.384
0.059270951 -0.05 0.045494618 99037.532
0.057162686 -0.05 0.045002181 99037.026
0.055088326 -0.05 0.044501852 99036.64
0.053047572 -0.05 0.043993453 99036.794
0.051040127 -0.05 0.043476841 99036.978
0.049065689 -0.05 0.042951962 99037.508
0.047123995 -0.05 0.042418641 99038.426
0.045214805 -0.05 0.0418767 99040.029
0.043337916 -0.05 0.041325869 99042.432
0.041493121 -0.05 0.040765962 99045.293
0.039680219 -0.05 0.040196834 99048.38
0.037899066 -0.05 0.039618206 99051.914
0.03614955 -0.05 0.039029774 99056.246
0.034431585 -0.05 0.038431224 99061.825
0.032745109 -0.05 0.037822245 99068.457
0.031090102 -0.05 0.037202483 99076.246
0.029466605 -0.05 0.036571505 99084.972
0.027874675 -0.05 0.035928926 99095.103
0.026314445 -0.05 0.035274258 99107.187
0.024786107 -0.05 0.034606976 99120.762
0.023289903 -0.05 0.033926562 99136.627
0.021826193 -0.05 0.033232374 99154.384
0.020395365 -0.05 0.032523829 99173.662
0.018997969 -0.05 0.03180018 99195.742
0.017634636 -0.05 0.031060647 99220.845
0.016306093 -0.05 0.030304458 99249.964
0.015013256 -0.05 0.029530737 99283.366
0.013757215 -0.05 0.028738581 99322.068
0.012539259 -0.05 0.027927049 99366.5
0.0113609 -0.05 0.02709509 99418.306
0.010223847 -0.05 0.026241583 99478.706
0.0091301283 -0.05 0.025365597 99548.056
0.0080822001 -0.05 0.024466198 99625.994
0.0070827501 -0.05 0.023542192 99713.435
0.0061348055 -0.05 0.022592733 99811.351
0.0052420895 -0.05 0.021617509 99922.87
0.0044084543 -0.05 0.020615991 100048.17
0.0036379913 -0.05 0.019588194 100184.5
0.0029354882 -0.05 0.018535247 100334.38
0.0023055743 -0.05 0.017458439 100494.49
0.0017526867 -0.05 0.016360094 100660.66
0.0012809104 -0.05 0.015244087 100828.04
0.00089349931 -0.05 0.014114692 100991
0.00059241748 -0.05 0.012977138 101144.36
0.00037799121 -0.05 0.011837477 101280.12
0.00024896841 -0.05 0.010701828 101392.14
0.9962978 -0.05 -0.029832114 100257.92
0.99012608 -0.05 -0.02868509 100255.25
0.98395306 -0.05 -0.027545008 100246.43
0.97777877 -0.05 -0.02641184 100241.68
0.97160324 -0.05 -0.025285482 100235.82
0.96542649 -0.05 -0.024165775 100230.13
0.95924855 -0.05 -0.023052738 100223.33
0.95306942 -0.05 -0.021946309 100216.36
0.94688913 -0.05 -0.020846333 100208.59
0.94070771 -0.05 -0.019752726 100200.46
0.93452517 -0.05 -0.018665483 100191.44
0.92834153 -0.05 -0.017584547 100182.15
0.92215679 -0.05 -0.016509841 100172.35
0.91597098 -0.05 -0.015441329 100162.32
0.90978414 -0.05 -0.014378862 100151.67
0.90359626 -0.05 -0.013322444 100141.02
0.89740736 -0.05 -0.012272044 100130.16
0.89121746 -0.05 -0.011227524 100119.26
0.88502657 -0.05 -0.010188873 100108.3
0.87883469 -0.05 -0.009156148 100097.43
0.87264185 -0.05 -0.0081292114 100086.59
0.86644806 -0.05 -0.007107996 100075.85
0.86025333 -0.05 -0.0060925305 100065.27
0.85405767 -0.05 -0.0050827293 100054.79
0.8478611 -0.05 -0.0040785301 100044.52
0.84166362 -0.05 -0.003079947 100034.42
0.83546524 -0.05 -0.002087016 100024.62
0.82926597 -0.05 -0.001099563 100014.81
0.82306583 -0.05 -0.00011762805 100005.31
0.81686482 -0.05 0.00085874232 99995.837
0.81066295 -0.05 0.0018296272 99986.726
0.80446021 -0.05 0.0027950359 99977.632
0.79825664 -0.05 0.0037549996 99968.774
0.79205222 -0.05 0.0047094733 99960.013
0.78584696 -0.05 0.0056585429 99951.415
0.77964089 -0.05 0.0066021733 99942.942
0.77343397 -0.05 0.0075403329 99934.578
0.76722625 -0.05 0.0084730822 99926.287
0.76101771 -0.05 0.009400407 99918.235
0.75480836 -0.05 0.010322297 99910.197
0.7485982 -0.05 0.011238724 99902.297
0.74238724 -0.05 0.012149671 99894.439
0.73617546 -0.05 0.013055127 99886.764
0.7299629 -0.05 0.013955052 99879.14
0.72374954 -0.05 0.014849483 99871.548
0.71753539 -0.05 0.015738446 99863.959
0.71132043 -0.05 0.01662177 99856.615
0.70510469 -0.05 0.017499503 99849.129
0.69888816 -0.05 0.018371613 99841.84
0.69267082 -0.05 0.019238004 99834.503
0.6864527 -0.05 0.020098735 99827.274
0.68023379 -0.05 0.020953707 99820.04
0.67401408 -0.05 0.021802929 99812.756
0.66779357 -0.05 0.022646286 99805.547
0.66157227 -0.05 0.023483678 99798.468
0.65535018 -0.05 0.024315188 99791.298
0.64912729 -0.05 0.025140731 99784.179
0.64290358 -0.05 0.025960141 99777.079
0.63667907 -0.05 0.026773385 99770.019
0.63045376 -0.05 0.027580465 99762.893
0.62422763 -0.05 0.028381244 99755.855
0.61800069 -0.05 0.029175637 99748.77
0.61177293 -0.05 0.029963641 99741.703
0.60554436 -0.05 0.030745111 99734.649
0.59931495 -0.05 0.031519976 99727.56
0.59308472 -0.05 0.032288153 99720.484
0.58685365 -0.05 0.033049549 99713.36
0.58062175 -0.05 0.03380405 99706.266
0.574389 -0.05 0.034551511 99699.164
0.5681554 -0.05 0.035291898 99692.006
0.56192096 -0.05 0.036025091 99684.889
0.55568565 -0.05 0.036750928 99677.749
0.54944949 -0.05 0.037469337 99670.546
0.54321245 -0.05 0.038180156 99663.39
0.53697453 -0.05 0.038883245 99656.197
0.53073575 -0.05 0.039578534 99648.973
0.52449608 -0.05 0.040265851 99641.739
0.51825552 -0.05 0.040945055 99634.463
0.51201407 -0.05 0.041615977 99627.221
0.50577171 -0.05 0.042278478 99619.91
0.49952847 -0.05 0.042932437 99612.568
0.4932843 -0.05 0.043577655 99605.196
0.48703922 -0.05 0.04421393 99597.838
0.48079322 -0.05 0.044841137 99590.375
0.47454631 -0.05 0.045459137 99582.864
0.46829846 -0.05 0.046067681 99575.348
0.46204968 -0.05 0.046666552 99567.838
0.45579997 -0.05 0.047255591 99560.267
0.44954932 -0.05 0.047834613 99552.65
0.44329773 -0.05 0.04840339 99545
0.4370452 -0.05 0.048961684 99537.352
0.43079172 -0.05 0.049509285 99529.663
0.42453729 -0.05 0.050045992 99521.918
0.41828192 -0.05 0.050571556 99514.145
0.4120256 -0.05 0.0510857 99506.362
0.40576835 -0.05 0.051588198 99498.498
0.39951013 -0.05 0.052078765 99490.645
0.39325097 -0.05 0.052557091 99482.752
0.38699088 -0.05 0.053022961 99474.765
0.38072985 -0.05 0.053476134 99466.676
0.37446788 -0.05 0.05391621 99458.644
0.36820499 -0.05 0.05434287 99450.537
0.36194118 -0.05 0.05475587 99442.397
0.35567647 -0.05 0.055154874 99434.192
0.34941086 -0.05 0.055539524 99425.968
0.34314436 -0.05 0.055909432 99417.741
0.33687699 -0.05 0.056264267 99409.441
0.33060876 -0.05 0.056603638 99401.196
0.32433969 -0.05 0.056927119 99392.955
0.31806981 -0.05 0.057234321 99384.484
0.31179913 -0.05 0.057524825 99375.587
0.30552767 -0.05 0.057798197 99367.842
