# wallShearStress  FACE_DATA 448
# x y z  wallShearStress_x wallShearStress_y wallShearStress_z
0.29468942 -0.05 -0.061866669 -6.9983539 1.2433153e-16 0.3017434
0.28905738 -0.05 -0.061624699 -7.0407603 6.4355786e-17 0.32087703
0.28350705 -0.05 -0.061371657 -7.1657594 2.6562466e-16 0.34606341
0.27803731 -0.05 -0.061107707 -7.282379 4.1377607e-16 0.37135616
0.27264702 -0.05 -0.060833074 -7.4003842 -2.5774626e-16 0.39745916
0.26733508 -0.05 -0.060548008 -7.5179902 1.6869986e-16 0.42445044
0.26210038 -0.05 -0.06025274 -7.635274 8.2844299e-17 0.4522117
0.25694185 -0.05 -0.059947472 -7.7521222 3.2892395e-16 0.48090689
0.25185846 -0.05 -0.059632451 -7.8687307 -3.9315622e-17 0.51035111
0.24684911 -0.05 -0.05930788 -7.9855642 -2.5429441e-16 0.54089699
0.24191281 -0.05 -0.058973904 -8.1017663 1.4891467e-16 0.57220679
0.23704855 -0.05 -0.058630758 -8.2174268 3.5016165e-17 0.60438502
0.2322553 -0.05 -0.058278647 -8.3318184 2.6777905e-16 0.63735436
0.22753208 -0.05 -0.057917793 -8.4448857 3.4915616e-16 0.67116272
0.22287791 -0.05 -0.057548401 -8.5569155 -3.6580212e-16 0.70589589
0.21829186 -0.05 -0.057170606 -8.6677404 -3.2077494e-16 0.74155449
0.21377297 -0.05 -0.056784634 -8.7780369 -1.2641099e-16 0.77800593
0.2093203 -0.05 -0.05639067 -8.88786 6.7077656e-18 0.8156051
0.20493294 -0.05 -0.055988812 -8.9960275 4.1101024e-17 0.85397612
0.20061 -0.05 -0.055579288 -9.1027506 1.0318708e-17 0.8931355
0.19635058 -0.05 -0.055162276 -9.2083022 2.7731759e-16 0.93325414
0.19215378 -0.05 -0.054737974 -9.3132815 3.3648726e-16 0.97426313
0.18801877 -0.05 -0.05430655 -9.4179085 -1.6324034e-16 1.0164954
0.18394468 -0.05 -0.053868054 -9.5212265 -1.0031658e-16 1.0596726
0.17993067 -0.05 -0.053422706 -9.623891 -5.7182153e-17 1.1036812
0.17597593 -0.05 -0.052970667 -9.7259009 -1.3012507e-16 1.1488959
0.17207962 -0.05 -0.05251206 -9.8264844 -3.1253932e-16 1.1948378
0.16824096 -0.05 -0.052047066 -9.9259017 1.1223936e-16 1.2418512
0.16445914 -0.05 -0.051575811 -10.023354 -5.077678e-17 1.2897075
0.1607334 -0.05 -0.051098405 -10.118162 -4.1923778e-17 1.3385417
0.15706296 -0.05 -0.050614948 -10.210041 -7.2833855e-16 1.3880167
0.15344707 -0.05 -0.050125633 -10.299863 -1.3064639e-16 1.4384532
0.149885 -0.05 -0.049630544 -10.387469 2.3441563e-16 1.4899825
0.146376 -0.05 -0.049129797 -10.473291 3.5205994e-17 1.5423788
0.14291936 -0.05 -0.04862351 -10.558168 -1.1749708e-16 1.5960398
0.13951437 -0.05 -0.048111749 -10.64104 4.9514088e-16 1.6505864
0.13616032 -0.05 -0.047594644 -10.721837 7.496657e-16 1.7060692
0.13285654 -0.05 -0.047072285 -10.800368 7.3744479e-16 1.762477
0.12960234 -0.05 -0.046544813 -10.877042 -5.3917619e-16 1.8198417
0.12639705 -0.05 -0.046012311 -10.951911 1.5637116e-16 1.8786335
0.12324004 -0.05 -0.045474779 -11.024041 2.0995433e-16 1.938224
0.12013065 -0.05 -0.044932375 -11.094303 -1.2408028e-17 1.9987466
0.11706824 -0.05 -0.044385192 -11.162374 6.8756309e-16 2.0606132
0.11405219 -0.05 -0.043833223 -11.226931 8.0353466e-17 2.1234145
0.11108192 -0.05 -0.043276517 -11.288277 -8.5193128e-17 2.1870514
0.10815681 -0.05 -0.042715179 -11.346311 2.2048313e-16 2.2516065
0.10527627 -0.05 -0.04214922 -11.400084 -8.0707542e-17 2.317015
0.10243972 -0.05 -0.041578706 -11.449567 3.4736095e-16 2.3828649
0.099646563 -0.05 -0.04100377 -11.495666 3.2815012e-16 2.450165
0.096896277 -0.05 -0.040424332 -11.536235 -2.4303398e-17 2.5183159
0.094188313 -0.05 -0.039840421 -11.570675 5.5256928e-16 2.5865742
0.091522116 -0.05 -0.039252158 -11.599985 -2.363718e-16 2.6558882
0.088897183 -0.05 -0.038659438 -11.623026 -6.2576081e-16 2.7256137
0.086312994 -0.05 -0.038062302 -11.641189 6.8613732e-17 2.7954029
0.083769034 -0.05 -0.037460794 -11.65565 3.3473713e-16 2.8662823
0.081264811 -0.05 -0.03685492 -11.66631 1.0660302e-15 2.9381737
0.078799834 -0.05 -0.0362447 -11.675725 2.0168874e-16 3.0125657
0.076373661 -0.05 -0.03563001 -11.683465 3.8630497e-16 3.0882951
0.073985834 -0.05 -0.03501082 -11.685091 -9.9015639e-17 3.1643195
0.071635884 -0.05 -0.034387183 -11.679726 7.6066484e-17 3.2410539
0.069323367 -0.05 -0.033759098 -11.665585 9.2866308e-17 3.31859
0.067047882 -0.05 -0.033126432 -11.640544 -1.9980849e-16 3.3964325
0.06480902 -0.05 -0.032489127 -11.605162 1.2566633e-15 3.4750641
0.062606371 -0.05 -0.031847162 -11.565967 -4.651208e-16 3.5569455
0.060439564 -0.05 -0.031200426 -11.530701 4.5331494e-16 3.6437115
0.058308232 -0.05 -0.030548817 -11.498416 4.5839711e-16 3.7352874
0.056212015 -0.05 -0.029892257 -11.470363 3.2567807e-16 3.8326254
0.054150579 -0.05 -0.02923063 -11.454144 -2.2272166e-16 3.9373216
0.052123573 -0.05 -0.028563883 -11.442163 -7.3341146e-16 4.048115
0.050130718 -0.05 -0.027891814 -11.430904 3.3078682e-16 4.164387
0.04817173 -0.05 -0.027214258 -11.416445 -1.0838356e-15 4.2843115
0.046246308 -0.05 -0.026531136 -11.397199 -4.9585673e-16 4.409226
0.044354207 -0.05 -0.025842253 -11.37073 2.8361695e-16 4.5390079
0.0424952 -0.05 -0.025147411 -11.336511 -7.9160383e-16 4.6741455
0.04066911 -0.05 -0.024446325 -11.292356 -9.9292777e-16 4.813589
0.038875743 -0.05 -0.023738794 -11.239244 4.2426044e-16 4.9575831
0.037114912 -0.05 -0.023024658 -11.182532 6.0238582e-16 5.1082337
0.035386495 -0.05 -0.022303623 -11.124044 -8.8503242e-16 5.2655672
0.033690404 -0.05 -0.02157538 -11.062159 -1.4463032e-15 5.4286608
0.032026582 -0.05 -0.020839609 -10.995181 -6.0135688e-16 5.5967807
0.030394989 -0.05 -0.020095995 -10.919763 -7.2088616e-17 5.7689082
0.028795635 -0.05 -0.019344182 -10.832864 -1.9166179e-16 5.9439268
0.027228597 -0.05 -0.018583743 -10.730323 3.9332098e-17 6.119561
0.025693963 -0.05 -0.0178143 -10.609643 -9.8827019e-17 6.2949467
0.024191904 -0.05 -0.017035375 -10.467775 -3.1809137e-16 6.4678791
0.022722652 -0.05 -0.016246461 -10.301556 -1.0415653e-15 6.6359606
0.021286493 -0.05 -0.015447061 -10.108878 -6.7103561e-16 6.7970768
0.019883838 -0.05 -0.014636567 -9.8871739 4.8693199e-16 6.947296
0.018515121 -0.05 -0.013814426 -9.635354 -1.47384e-16 7.0857211
0.017180948 -0.05 -0.012979939 -9.3523353 2.632316e-16 7.2101594
0.015882014 -0.05 -0.01213238 -9.0363534 3.4141792e-16 7.3140894
0.014619105 -0.05 -0.011271041 -8.685141 3.0917211e-16 7.3845762
0.013393204 -0.05 -0.010395117 -8.2940018 5.1061194e-16 7.4283314
0.012205472 -0.05 -0.009503801 -7.8612012 -6.2105019e-16 7.438356
0.01105727 -0.05 -0.0085962591 -7.3877406 -6.7881445e-16 7.4060042
0.009950191 -0.05 -0.0076715643 -6.8725874 1.1426028e-16 7.3235075
0.0088860262 -0.05 -0.0067287406 -6.3170257 -2.5755498e-16 7.1822561
0.0078668752 -0.05 -0.0057670217 -5.7253302 6.9927873e-16 6.974059
0.0068952612 -0.05 -0.004785676 -5.1042579 5.0491185e-17 6.6914195
0.0059739595 -0.05 -0.0037837327 -4.4612514 -1.2720058e-16 6.3251234
0.0051060561 -0.05 -0.002760593 -3.8074809 8.5187249e-17 5.870621
0.004295287 -0.05 -0.0017162477 -3.1570099 -3.0214748e-16 5.3245122
0.0035455351 -0.05 -0.00065048159 -2.5256874 -2.2289991e-16 4.685858
0.0028608767 -0.05 0.00043635929 -1.9301148 1.4530797e-16 3.9591882
0.0022459924 -0.05 0.0015427614 -1.3732565 -6.5720224e-16 3.1530418
0.0017053919 -0.05 0.0026670645 -0.89548801 -3.2519563e-16 2.2850951
0.0012433094 -0.05 0.0038065941 -0.52163089 6.9192687e-17 1.3727553
0.00086350259 -0.05 0.0049571555 -0.29823106 -1.8430218e-16 0.69501165
0.00056886836 -0.05 0.0061142259 -0.1703447 -1.3205648e-16 0.095814542
0.00036094045 -0.05 0.0072724329 -0.081265473 -2.5686681e-17 -0.47220752
0.00023955402 -0.05 0.0084257202 -0.088372988 1.1595959e-16 -1.1624753
0.00020296523 -0.05 0.0095680889 -0.1325788 -2.7244875e-18 -2.127682
0.99626134 -0.05 -0.030730727 -0.17791275 -2.4026306e-16 -0.086453512
0.99001698 -0.05 -0.031373949 -0.47028607 2.4031661e-16 -0.044064523
0.98377188 -0.05 -0.032010148 -0.43955666 -6.6765291e-16 -0.045019689
0.97752608 -0.05 -0.032639351 -0.50944698 9.3265194e-16 -0.0513842
0.97127959 -0.05 -0.033261668 -0.54278564 2.2172021e-16 -0.054093822
0.96503244 -0.05 -0.033877256 -0.58460983 4.7960263e-16 -0.057554012
0.95878462 -0.05 -0.034486098 -0.62054994 1.6245501e-16 -0.060354108
0.95253616 -0.05 -0.03508826 -0.65561605 -8.9433646e-17 -0.063012812
0.94628707 -0.05 -0.035683896 -0.68883609 -5.6408996e-18 -0.065431239
0.94003737 -0.05 -0.036273091 -0.72086559 -1.2282853e-16 -0.067672729
0.93378707 -0.05 -0.036855851 -0.75189503 1.5598837e-16 -0.069755572
0.92753618 -0.05 -0.037432238 -0.78190161 -1.755731e-16 -0.071697753
0.9212847 -0.05 -0.038002327 -0.81112474 4.8068497e-17 -0.07352379
0.91503267 -0.05 -0.038566154 -0.83990159 3.5783933e-16 -0.075283242
0.90878008 -0.05 -0.039123872 -0.86810173 -3.1646963e-16 -0.076905606
0.90252695 -0.05 -0.039675477 -0.89591936 -1.2311556e-16 -0.078450739
0.89627329 -0.05 -0.040221002 -0.92312379 -5.4443402e-16 -0.079902153
0.89001911 -0.05 -0.040760585 -0.95033391 -3.2297807e-16 -0.081326182
0.88376443 -0.05 -0.041294238 -0.9773582 -1.4771727e-16 -0.082653156
0.87750923 -0.05 -0.041821904 -1.0041085 2.4662877e-16 -0.083927981
0.87125354 -0.05 -0.042343723 -1.0306465 -6.9048713e-17 -0.0851617
0.86499738 -0.05 -0.042859763 -1.0575588 5.6614475e-17 -0.086379647
0.85874074 -0.05 -0.043369995 -1.0843019 -6.9559623e-17 -0.087528664
0.85248363 -0.05 -0.043874506 -1.1112544 1.1102679e-16 -0.088665899
0.84622608 -0.05 -0.04437336 -1.1384771 -1.9452555e-17 -0.089775095
0.83996807 -0.05 -0.044866544 -1.1663281 -3.8223569e-17 -0.090898356
0.83370962 -0.05 -0.045354019 -1.1945995 4.0939621e-16 -0.092023442
0.82745072 -0.05 -0.045835964 -1.2239298 -2.0364336e-16 -0.093228489
0.82119141 -0.05 -0.046312338 -1.254631 1.5632008e-16 -0.094461791
0.81493168 -0.05 -0.046783095 -1.2865191 -3.7602319e-16 -0.09577623
0.80867153 -0.05 -0.047248314 -1.3194799 1.0653409e-17 -0.097051683
0.80241098 -0.05 -0.047708005 -1.3528119 4.4262543e-16 -0.098298071
0.79615002 -0.05 -0.048162202 -1.3864608 -7.2782528e-17 -0.099472914
0.78988866 -0.05 -0.048610858 -1.4201592 -2.7143015e-16 -0.10060958
0.78362691 -0.05 -0.049054061 -1.4540649 6.9279362e-17 -0.10169887
0.77736479 -0.05 -0.049491775 -1.4882382 -1.9956937e-16 -0.10272243
0.77110227 -0.05 -0.049923969 -1.5224091 3.1377686e-17 -0.10370901
0.76483938 -0.05 -0.050350704 -1.5570945 1.2195369e-16 -0.10466719
0.75857611 -0.05 -0.050771966 -1.5920644 -2.8783644e-17 -0.10555133
0.75231249 -0.05 -0.051187745 -1.6274634 -4.0858625e-16 -0.10635697
0.7460485 -0.05 -0.051598015 -1.6631928 -2.2993797e-16 -0.10703788
0.73978415 -0.05 -0.052002758 -1.6990696 -1.9978187e-16 -0.10767796
0.73351945 -0.05 -0.052401962 -1.7351583 1.3255866e-16 -0.10837169
0.72725439 -0.05 -0.052795589 -1.7716413 5.5301945e-16 -0.10906019
0.72098899 -0.05 -0.053183675 -1.8086556 2.8668003e-16 -0.10973417
0.71472325 -0.05 -0.053566248 -1.8466463 -3.574328e-17 -0.11037954
0.70845716 -0.05 -0.053943135 -1.8850372 -4.2222295e-16 -0.11093625
0.70219074 -0.05 -0.054314386 -1.9239138 -7.4328772e-17 -0.11150111
0.69592398 -0.05 -0.054679967 -1.9636706 -7.2974896e-18 -0.11196203
0.68965688 -0.05 -0.055039784 -2.0037897 -1.1938454e-16 -0.11242655
0.68338947 -0.05 -0.055393895 -2.044847 -2.538286e-16 -0.11281912
0.67712173 -0.05 -0.055742201 -2.0864739 2.8681347e-16 -0.11316764
0.67085367 -0.05 -0.056084714 -2.1289744 1.2979834e-18 -0.11347151
0.66458529 -0.05 -0.056421316 -2.1723581 3.285288e-17 -0.11369093
0.65831659 -0.05 -0.056751906 -2.2161367 1.2701322e-16 -0.11386564
0.65204758 -0.05 -0.057076571 -2.2609565 2.8086274e-17 -0.11400317
0.64577826 -0.05 -0.057395224 -2.3068011 5.1053973e-16 -0.11403272
0.63950863 -0.05 -0.057707698 -2.3533024 -2.1834276e-16 -0.11399356
0.63323869 -0.05 -0.058013961 -2.4005422 3.091904e-17 -0.1138883
0.62696846 -0.05 -0.058314015 -2.4488132 -1.9973687e-16 -0.11370986
0.62069792 -0.05 -0.058607723 -2.4980081 -5.0086287e-17 -0.11341326
0.61442709 -0.05 -0.058895 -2.548063 3.1474394e-16 -0.11307567
0.60815597 -0.05 -0.059175843 -2.5992906 -8.885791e-17 -0.11262435
0.60188455 -0.05 -0.059450108 -2.6514256 -2.476249e-16 -0.11205804
0.59561285 -0.05 -0.059717722 -2.7044815 7.2618291e-17 -0.1114034
0.58934086 -0.05 -0.059978601 -2.758735 1.2265749e-16 -0.1106227
0.58306859 -0.05 -0.060232655 -2.8140487 -2.9845182e-17 -0.10973597
0.57679604 -0.05 -0.060479769 -2.8705544 1.658283e-17 -0.10869028
0.57052322 -0.05 -0.060719797 -2.9278983 -1.0459844e-16 -0.10753336
0.56425013 -0.05 -0.060952708 -2.9865346 -1.4250981e-16 -0.10625895
0.55797678 -0.05 -0.061178378 -3.0463774 8.2589294e-17 -0.10479478
0.55170316 -0.05 -0.061396646 -3.1073101 5.0293908e-17 -0.10317817
0.54542929 -0.05 -0.061607441 -3.1695902 1.222474e-16 -0.10140921
0.53915517 -0.05 -0.061810601 -3.2331766 -4.3949247e-17 -0.099430064
0.53288081 -0.05 -0.062005986 -3.297785 -1.0677097e-16 -0.097298789
0.5266062 -0.05 -0.062193525 -3.3638731 1.1524669e-16 -0.094959921
0.52033136 -0.05 -0.062373048 -3.4312935 -1.5658261e-16 -0.092406607
0.51405628 -0.05 -0.06254441 -3.500148 1.4636134e-16 -0.089653354
0.50778099 -0.05 -0.062707446 -3.5702572 8.4472204e-18 -0.086629514
0.50150548 -0.05 -0.062862016 -3.6416561 -9.1745613e-18 -0.08339486
0.49522978 -0.05 -0.063007999 -3.7147156 -7.1657109e-17 -0.079876632
0.48895386 -0.05 -0.063145197 -3.7892434 -3.6998691e-17 -0.076083298
0.48267775 -0.05 -0.063273406 -3.8649727 -1.0898465e-16 -0.071985813
0.47640148 -0.05 -0.063392503 -3.9421264 9.2744551e-17 -0.067633036
0.47012503 -0.05 -0.063502348 -4.0211446 4.7959459e-17 -0.062927266
0.46384842 -0.05 -0.063602693 -4.1017322 -5.9066903e-17 -0.057872019
0.45757166 -0.05 -0.063693322 -4.1836135 5.0250707e-17 -0.052458986
0.45129478 -0.05 -0.063774075 -4.2670323 -1.1883803e-17 -0.046688905
0.44501776 -0.05 -0.063844768 -4.3522501 2.5568798e-17 -0.040510409
0.43874064 -0.05 -0.063905174 -4.4392523 -6.0361563e-17 -0.033935954
0.43246343 -0.05 -0.063955055 -4.5277303 -7.2299344e-17 -0.027031491
0.42618614 -0.05 -0.063994201 -4.6176774 1.222728e-17 -0.019854899
0.4199088 -0.05 -0.064022412 -4.7093308 -2.9492358e-17 -0.01147024
0.41363141 -0.05 -0.064039441 -4.8028739 -1.7634658e-17 -0.0029753467
0.40735401 -0.05 -0.06404501 -4.8979519 2.8139724e-19 0.0062031416
0.4010766 -0.05 -0.064038895 -4.9949376 -2.7175883e-18 0.016147527
0.39479922 -0.05 -0.064020811 -5.0938887 2.0283265e-17 0.02624834
0.38852188 -0.05 -0.06399045 -5.1943077 -4.2331471e-17 0.036818631
0.38224462 -0.05 -0.063947598 -5.2964742 -4.4333164e-17 0.048175586
0.37596746 -0.05 -0.063892015 -5.4007534 3.0567616e-17 0.060329988
0.36969043 -0.05 -0.063823303 -5.506721 -6.917757e-17 0.073284386
0.36341355 -0.05 -0.063741143 -5.614072 4.1520782e-17 0.086883677
0.35713688 -0.05 -0.063645294 -5.7233655 -9.8593999e-17 0.10132274
0.35086043 -0.05 -0.063535421 -5.8345491 -6.3232737e-17 0.11659724
0.34458426 -0.05 -0.063411169 -5.9476326 -3.7924947e-17 0.13277406
0.33830839 -0.05 -0.063272151 -6.0623431 8.2007959e-17 0.14986923
0.33203287 -0.05 -0.06311804 -6.1788176 1.8136647e-16 0.16790059
0.32575776 -0.05 -0.062948446 -6.2971944 2.1348742e-16 0.1870133
0.3194831 -0.05 -0.062762947 -6.4168345 1.0391938e-16 0.20714597
0.31320893 -0.05 -0.062561153 -6.5375779 -2.0799431e-16 0.22847635
0.30693532 -0.05 -0.062342654 -6.6634633 -4.2347894e-17 0.25151302
0.30066235 -0.05 -0.062107018 -6.8547764 3.8376241e-17 0.27808467
0.29955491 -0.05 0.058042563 -7.2670123 -4.3813039e-16 0.28420379
0.29392178 -0.05 0.058257694 -7.3096686 2.0703052e-16 0.2665399
0.2883692 -0.05 0.058455169 -7.2909129 -4.6645021e-17 0.24663647
0.28289606 -0.05 0.058635244 -7.2768112 5.7046442e-18 0.22667828
0.27750125 -0.05 0.058798232 -7.2630909 1.6533894e-16 0.20671602
0.27218367 -0.05 0.058944475 -7.2510196 1.3566486e-17 0.18662843
0.26694226 -0.05 0.059074291 -7.2402023 -8.0305824e-17 0.16650559
0.26177596 -0.05 0.059187969 -7.2307666 -6.2574563e-17 0.14620887
0.25668374 -0.05 0.059285839 -7.2228073 -8.1276863e-17 0.12594303
0.25166458 -0.05 0.059368189 -7.2165688 2.3838919e-17 0.10552437
0.24671745 -0.05 0.059435247 -7.2112593 -4.0521135e-17 0.085586176
0.24184136 -0.05 0.059487332 -7.2071226 3.5337686e-17 0.065503101
0.23703535 -0.05 0.059524725 -7.2038623 6.4951172e-17 0.043697958
0.23229842 -0.05 0.059547731 -7.2015877 5.8314377e-18 0.021748727
0.22762963 -0.05 0.059556633 -7.2007042 -2.5937572e-18 -0.00015797577
0.22302804 -0.05 0.05955164 -7.200857 -4.2652686e-18 -0.022694161
0.21849273 -0.05 0.059533056 -7.2025549 1.4508906e-18 -0.045043722
0.21402278 -0.05 0.059501141 -7.2062307 9.8808204e-18 -0.066199203
0.2096173 -0.05 0.059456066 -7.210539 -6.5218044e-17 -0.087948449
0.20527538 -0.05 0.059398131 -7.2159203 2.8737834e-17 -0.11037515
0.20099617 -0.05 0.059327588 -7.2225042 1.7270955e-18 -0.13333599
0.1967788 -0.05 0.059244702 -7.2303806 -3.0695068e-17 -0.15650303
0.19262243 -0.05 0.059149713 -7.2399271 -6.0334036e-17 -0.18020511
0.1885262 -0.05 0.059042741 -7.2502145 -1.4314521e-16 -0.20425812
0.1844893 -0.05 0.05892407 -7.2617605 -1.0686244e-16 -0.22850635
0.18051094 -0.05 0.058793928 -7.2750339 -2.5070332e-17 -0.25336659
0.17659029 -0.05 0.058652507 -7.2892194 -1.5357235e-16 -0.27844646
0.17272657 -0.05 0.058500048 -7.305055 -2.2614774e-16 -0.30412573
0.16891901 -0.05 0.058336745 -7.3221363 3.8907618e-17 -0.33026407
0.16516683 -0.05 0.058162767 -7.340572 -1.8627506e-17 -0.35701425
0.1614693 -0.05 0.057978275 -7.359883 -2.3159235e-16 -0.38412851
0.15782566 -0.05 0.057783526 -7.3807753 1.4376367e-16 -0.41182995
0.15423518 -0.05 0.057578664 -7.4028762 -4.2145981e-17 -0.44017624
0.15069714 -0.05 0.05736386 -7.4258695 1.2859619e-16 -0.46899134
0.14721085 -0.05 0.057139294 -7.4502128 1.2420336e-16 -0.4985786
0.14377558 -0.05 0.056905087 -7.4753125 2.1693692e-17 -0.52874261
0.14039066 -0.05 0.056661426 -7.5014212 -2.3535402e-16 -0.55957256
0.13705542 -0.05 0.056408455 -7.5284602 -3.6874058e-17 -0.5910533
0.13376918 -0.05 0.056146371 -7.5567814 -3.115407e-16 -0.6232645
0.13053129 -0.05 0.05587531 -7.5866476 -6.4226987e-17 -0.65653302
0.12734111 -0.05 0.055595326 -7.6168454 -1.8373035e-16 -0.69036963
0.124198 -0.05 0.055306626 -7.6483303 2.896854e-17 -0.72497486
0.12110132 -0.05 0.055009359 -7.6817622 -1.6868268e-16 -0.76080391
0.11805047 -0.05 0.054703562 -7.7162485 1.6154312e-17 -0.79760001
0.11504486 -0.05 0.054389336 -7.7519595 1.5739255e-17 -0.8353519
0.11208388 -0.05 0.054066836 -7.7890999 3.1426893e-17 -0.87421791
0.10916695 -0.05 0.053736117 -7.8269905 -4.0033986e-16 -0.91411503
0.10629351 -0.05 0.053397295 -7.8651142 -2.6068153e-16 -0.95474552
0.10346296 -0.05 0.05305055 -7.9047184 3.0059746e-16 -0.99694004
0.10067477 -0.05 0.052695843 -7.9442112 -4.1395861e-17 -1.0402681
0.097928399 -0.05 0.05233325 -7.9834545 7.4823561e-18 -1.0844605
0.095223305 -0.05 0.051962935 -8.0241674 -9.3731686e-17 -1.1304479
0.09255898 -0.05 0.051584834 -8.0651168 -1.8385341e-16 -1.1777517
0.089934907 -0.05 0.051199032 -8.1063533 3.6978735e-16 -1.2261745
0.087350578 -0.05 0.050805612 -8.1496367 -8.2413378e-16 -1.2764731
0.084805499 -0.05 0.050404621 -8.1939217 -3.4382013e-16 -1.3283169
0.082299186 -0.05 0.049996119 -8.2406615 -1.7534609e-16 -1.3826891
0.079831186 -0.05 0.049580017 -8.2877195 1.8262531e-16 -1.4387271
0.077401042 -0.05 0.049156324 -8.3348034 3.4043718e-16 -1.4961793
0.075008291 -0.05 0.048725129 -8.3825431 6.6123587e-16 -1.5554474
0.07265249 -0.05 0.048286468 -8.4313246 -1.5114157e-16 -1.6171571
0.070333227 -0.05 0.047840241 -8.479633 -5.1427686e-16 -1.6808444
0.068050091 -0.05 0.047386424 -8.5272852 -1.2720508e-16 -1.7465276
0.065802672 -0.05 0.046925026 -8.57563 5.0029076e-16 -1.8150454
0.063590589 -0.05 0.04645597 -8.6238468 5.001095e-16 -1.8862708
0.06141347 -0.05 0.045979184 -8.6715028 -4.1016049e-16 -1.960022
0.059270951 -0.05 0.045494618 -8.7188746 1.352557e-16 -2.0364569
0.057162686 -0.05 0.045002181 -8.7661556 7.2638365e-16 -2.1156013
0.055088326 -0.05 0.044501852 -8.8133264 6.1277838e-16 -2.198194
0.053047572 -0.05 0.043993453 -8.8612066 6.47391e-16 -2.2845911
0.051040127 -0.05 0.043476841 -8.9088796 3.9525978e-16 -2.3744789
0.049065689 -0.05 0.042951962 -8.9596531 -2.1211191e-16 -2.469802
0.047123995 -0.05 0.042418641 -9.0111746 2.709252e-16 -2.5698297
0.045214805 -0.05 0.0418767 -9.0616866 4.7922412e-16 -2.6745204
0.043337916 -0.05 0.041325869 -9.108119 1.8168493e-16 -2.7825216
0.041493121 -0.05 0.040765962 -9.1506905 -5.5225713e-16 -2.8943306
0.039680219 -0.05 0.040196834 -9.1918686 7.5815863e-17 -3.012661
0.037899066 -0.05 0.039618206 -9.2330618 5.5015017e-16 -3.1391431
0.03614955 -0.05 0.039029774 -9.2725723 7.2004621e-16 -3.2729471
0.034431585 -0.05 0.038431224 -9.3090449 -3.1986636e-16 -3.4133008
0.032745109 -0.05 0.037822245 -9.3417585 -7.3750528e-17 -3.5603907
0.031090102 -0.05 0.037202483 -9.3735997 6.5253455e-16 -3.7159442
0.029466605 -0.05 0.036571505 -9.406028 -4.7327098e-17 -3.8818895
0.027874675 -0.05 0.035928926 -9.4442532 6.8167246e-17 -4.0621011
0.026314445 -0.05 0.035274258 -9.4743528 4.3492383e-16 -4.2519312
0.024786107 -0.05 0.034606976 -9.4873906 -8.3465177e-16 -4.4505169
0.023289903 -0.05 0.033926562 -9.4789368 6.3043488e-16 -4.6577556
0.021826193 -0.05 0.033232374 -9.4333237 2.4946212e-16 -4.8729747
0.020395365 -0.05 0.032523829 -9.3444233 4.7134346e-16 -5.1022327
0.018997969 -0.05 0.03180018 -9.2263157 -2.7226048e-16 -5.3555798
0.017634636 -0.05 0.031060647 -9.0820495 1.1194355e-16 -5.6350924
0.016306093 -0.05 0.030304458 -8.9160888 -7.0929687e-16 -5.951872
0.015013256 -0.05 0.029530737 -8.7189416 -1.211615e-16 -6.3116825
0.013757215 -0.05 0.028738581 -8.4997181 -5.2959238e-16 -6.7235052
0.012539259 -0.05 0.027927049 -8.2617061 1.0809561e-15 -7.1865453
0.0113609 -0.05 0.02709509 -8.0218363 -4.7743864e-16 -7.6993425
0.010223847 -0.05 0.026241583 -7.8111673 1.1554252e-16 -8.2398608
0.0091301283 -0.05 0.025365597 -7.6870493 -1.3440473e-16 -8.809742
0.0080822001 -0.05 0.024466198 -7.5843066 -1.2434283e-17 -9.3776199
0.0070827501 -0.05 0.023542192 -7.4288131 3.7998144e-16 -9.8858434
0.0061348055 -0.05 0.022592733 -7.1355206 1.2407823e-16 -10.289826
0.0052420895 -0.05 0.021617509 -6.6887129 1.715115e-16 -10.562944
0.0044084543 -0.05 0.020615991 -6.1033167 -3.1723295e-16 -10.654119
0.0036379913 -0.05 0.019588194 -5.3923351 3.1548686e-16 -10.558295
0.0029354882 -0.05 0.018535247 -4.6026758 3.3215018e-16 -10.268059
0.0023055743 -0.05 0.017458439 -3.7748046 -5.2495382e-16 -9.7510316
0.0017526867 -0.05 0.016360094 -2.9392444 5.3028553e-16 -9.0068471
0.0012809104 -0.05 0.015244087 -2.1413485 3.9567622e-16 -8.061554
0.00089349931 -0.05 0.014114692 -1.4260985 3.4302532e-17 -6.9595888
0.00059241748 -0.05 0.012977138 -0.87687781 3.2297493e-16 -5.7608738
0.00037799121 -0.05 0.011837477 -0.48093091 1.8233128e-17 -4.5087198
0.00024896841 -0.05 0.010701828 -0.23932823 -3.6180048e-17 -3.2836573
0.9962978 -0.05 -0.029832114 -5.3748208 -2.6321003e-16 0.90298672
0.99012608 -0.05 -0.02868509 -5.9658248 -4.5962073e-16 1.0720608
0.98395306 -0.05 -0.027545008 -6.3380678 4.5512616e-16 1.1489536
0.97777877 -0.05 -0.02641184 -6.8422727 1.8620774e-16 1.2337442
0.97160324 -0.05 -0.025285482 -7.2974343 -1.888862e-17 1.3093883
0.96542649 -0.05 -0.024165775 -7.7480213 1.5024371e-15 1.383377
0.95924855 -0.05 -0.023052738 -8.1818109 8.5711372e-16 1.453726
0.95306942 -0.05 -0.021946309 -8.6066904 6.6722747e-16 1.5212851
0.94688913 -0.05 -0.020846333 -9.0087435 5.2346526e-16 1.5843306
0.94070771 -0.05 -0.019752726 -9.3945887 1.4822288e-15 1.6436322
0.93452517 -0.05 -0.018665483 -9.7589591 5.5230162e-16 1.6985815
0.92834153 -0.05 -0.017584547 -10.109013 2.6593674e-16 1.7501195
0.92215679 -0.05 -0.016509841 -10.435267 -2.0131163e-16 1.7970753
0.91597098 -0.05 -0.015441329 -10.743658 1.335192e-15 1.8404398
0.90978414 -0.05 -0.014378862 -11.032258 2.4383567e-16 1.88004
0.90359626 -0.05 -0.013322444 -11.304989 -1.5305178e-15 1.9161233
0.89740736 -0.05 -0.012272044 -11.553656 4.5260046e-16 1.9479747
0.89121746 -0.05 -0.011227524 -11.78133 8.3511005e-16 1.9758056
0.88502657 -0.05 -0.010188873 -11.985535 -5.981977e-17 1.9992492
0.87883469 -0.05 -0.009156148 -12.167596 1.3341725e-15 2.0186208
0.87264185 -0.05 -0.0081292114 -12.327982 1.4507483e-15 2.0341896
0.86644806 -0.05 -0.007107996 -12.470039 3.097078e-16 2.0463455
0.86025333 -0.05 -0.0060925305 -12.596412 1.1840552e-16 2.0558035
0.85405767 -0.05 -0.0050827293 -12.707048 2.4046746e-16 2.0626451
0.8478611 -0.05 -0.0040785301 -12.800945 -3.9692512e-16 2.0666702
0.84166362 -0.05 -0.003079947 -12.875035 -5.065997e-16 2.0674376
0.83546524 -0.05 -0.002087016 -12.926959 -1.9965433e-15 2.0646858
0.82926597 -0.05 -0.001099563 -12.954728 -2.1374893e-16 2.0581934
0.82306583 -0.05 -0.00011762805 -12.96167 2.075727e-15 2.0475908
0.81686482 -0.05 0.00085874232 -12.954182 -1.1799131e-15 2.0347945
0.81066295 -0.05 0.0018296272 -12.936948 -1.5118401e-15 2.0202768
0.80446021 -0.05 0.0027950359 -12.909568 7.6115452e-17 2.0044717
0.79825664 -0.05 0.0037549996 -12.875068 1.328112e-15 1.9874479
0.79205222 -0.05 0.0047094733 -12.832706 2.9596172e-16 1.9693849
0.78584696 -0.05 0.0056585429 -12.784407 6.3897614e-16 1.9505108
0.77964089 -0.05 0.0066021733 -12.729458 8.8248783e-18 1.9305921
0.77343397 -0.05 0.0075403329 -12.670118 -1.3277193e-16 1.9101982
0.76722625 -0.05 0.0084730822 -12.606568 -7.8581332e-16 1.8892072
0.76101771 -0.05 0.009400407 -12.53933 -4.8735259e-16 1.867703
0.75480836 -0.05 0.010322297 -12.46669 -3.5086951e-16 1.8456812
0.7485982 -0.05 0.011238724 -12.390888 8.5712479e-16 1.8234465
0.74238724 -0.05 0.012149671 -12.311307 -4.0801217e-16 1.8008937
0.73617546 -0.05 0.013055127 -12.228581 6.7376797e-16 1.7779127
0.7299629 -0.05 0.013955052 -12.142127 2.3020329e-17 1.7545758
0.72374954 -0.05 0.014849483 -12.053712 1.6644967e-17 1.7311179
0.71753539 -0.05 0.015738446 -11.963158 -3.8203871e-16 1.7073211
0.71132043 -0.05 0.01662177 -11.869954 -1.5248534e-15 1.6830311
0.70510469 -0.05 0.017499503 -11.77445 -7.1972344e-16 1.6588977
0.69888816 -0.05 0.018371613 -11.677527 1.1133923e-15 1.6342338
0.69267082 -0.05 0.019238004 -11.578559 1.4551026e-15 1.6097008
0.6864527 -0.05 0.020098735 -11.478431 -8.2210622e-16 1.584918
0.68023379 -0.05 0.020953707 -11.376401 -7.5130497e-16 1.5598555
0.67401408 -0.05 0.021802929 -11.273611 -3.9699991e-16 1.5348382
0.66779357 -0.05 0.022646286 -11.168919 -4.1267589e-17 1.5096045
0.66157227 -0.05 0.023483678 -11.063749 -9.7434078e-16 1.4844996
0.65535018 -0.05 0.024315188 -10.9573 -1.4734398e-15 1.4596028
0.64912729 -0.05 0.025140731 -10.849226 -2.0499544e-16 1.434653
0.64290358 -0.05 0.025960141 -10.743772 4.044957e-16 1.4100195
0.63667907 -0.05 0.026773385 -10.641395 2.0473223e-15 1.3858131
0.63045376 -0.05 0.027580465 -10.540883 -1.4971292e-17 1.3619438
0.62422763 -0.05 0.028381244 -10.442502 2.8607549e-16 1.3382891
0.61800069 -0.05 0.029175637 -10.346218 1.492224e-15 1.3151096
0.61177293 -0.05 0.029963641 -10.252798 -1.4945526e-15 1.2923046
0.60554436 -0.05 0.030745111 -10.162041 2.0585095e-15 1.2698569
0.59931495 -0.05 0.031519976 -10.074424 1.972427e-16 1.2479404
0.59308472 -0.05 0.032288153 -9.9895988 -6.6571137e-17 1.2263657
0.58685365 -0.05 0.033049549 -9.9070684 -1.8887247e-16 1.2051796
0.58062175 -0.05 0.03380405 -9.8262094 5.2319761e-17 1.1841344
0.574389 -0.05 0.034551511 -9.7465718 2.3602915e-16 1.1633427
0.5681554 -0.05 0.035291898 -9.6682949 -6.7370337e-16 1.1427609
0.56192096 -0.05 0.036025091 -9.5911763 -3.9365136e-16 1.1222391
0.55568565 -0.05 0.036750928 -9.5148405 9.2750953e-16 1.1018477
0.54944949 -0.05 0.037469337 -9.4397957 9.5789245e-16 1.0816375
0.54321245 -0.05 0.038180156 -9.3657048 9.8634157e-16 1.061421
0.53697453 -0.05 0.038883245 -9.2923965 9.5950413e-16 1.0414066
0.53073575 -0.05 0.039578534 -9.2202038 -9.2572181e-16 1.021471
0.52449608 -0.05 0.040265851 -9.1490347 7.7480937e-16 1.0015966
0.51825552 -0.05 0.040945055 -9.0788395 -1.275259e-15 0.98181672
0.51201407 -0.05 0.041615977 -9.0095016 3.317688e-16 0.96205709
0.50577171 -0.05 0.042278478 -8.9409914 1.1147046e-15 0.94244499
0.49952847 -0.05 0.042932437 -8.8737254 -2.4635061e-16 0.92287139
0.4932843 -0.05 0.043577655 -8.8074253 1.1725843e-15 0.90332541
0.48703922 -0.05 0.04421393 -8.7419662 4.9480154e-16 0.88380979
0.48079322 -0.05 0.044841137 -8.6775291 1.6230247e-15 0.86445499
0.47454631 -0.05 0.045459137 -8.6145385 -3.902796e-16 0.845103
0.46829846 -0.05 0.046067681 -8.5524583 4.8802492e-16 0.82571792
0.46204968 -0.05 0.046666552 -8.4911182 -2.2442724e-16 0.80636319
0.45579997 -0.05 0.047255591 -8.4307108 -1.0424413e-15 0.78706812
0.44954932 -0.05 0.047834613 -8.3715271 7.784561e-16 0.76778674
0.44329773 -0.05 0.04840339 -8.3133743 3.2432528e-16 0.74848321
0.4370452 -0.05 0.048961684 -8.2561226 2.0536624e-16 0.72916084
0.43079172 -0.05 0.049509285 -8.1997483 -3.5017326e-16 0.70986092
0.42453729 -0.05 0.050045992 -8.1446114 1.1988749e-16 0.69056548
0.41828192 -0.05 0.050571556 -8.090597 -2.9837575e-16 0.67120716
0.4120256 -0.05 0.0510857 -8.0376018 -2.4215396e-17 0.65180912
0.40576835 -0.05 0.051588198 -7.9857074 8.8210955e-17 0.63240629
0.39951013 -0.05 0.052078765 -7.93497 -1.4938692e-16 0.61286508
0.39325097 -0.05 0.052557091 -7.8850183 7.4271921e-17 0.59329163
0.38699088 -0.05 0.053022961 -7.8364027 -1.6756393e-16 0.57373094
0.38072985 -0.05 0.053476134 -7.7894177 -3.7360405e-17 0.55408272
0.37446788 -0.05 0.05391621 -7.7436366 -3.5332482e-16 0.53420245
0.36820499 -0.05 0.05434287 -7.6989176 1.2659071e-16 0.51435931
0.36194118 -0.05 0.05475587 -7.6560564 -5.8659781e-16 0.49442418
0.35567647 -0.05 0.055154874 -7.6152315 9.6251324e-17 0.47441335
0.34941086 -0.05 0.055539524 -7.5767773 -5.8905012e-16 0.45429548
0.34314436 -0.05 0.055909432 -7.5407528 9.4804394e-17 0.43406942
0.33687699 -0.05 0.056264267 -7.507421 7.0908442e-16 0.41379898
0.33060876 -0.05 0.056603638 -7.4764046 1.046978e-16 0.39325117
0.32433969 -0.05 0.056927119 -7.4467722 -1.1502312e-16 0.37251477
0.31806981 -0.05 0.057234321 -7.41894 -1.6740142e-16 0.35150748
0.31179913 -0.05 0.057524825 -7.3922965 -9.5008221e-17 0.33013792
0.30552767 -0.05 0.057798197 -7.2986127 4.9812199e-17 0.30384173
