# yPlus  FACE_DATA 448
# x y z  yPlus
0.29468942 -0.05 -0.061866669 22.915252
0.28905738 -0.05 -0.061624699 22.776749
0.28350705 -0.05 -0.061371657 22.87571
0.27803731 -0.05 -0.061107707 22.959028
0.27264702 -0.05 -0.060833074 23.044005
0.26733508 -0.05 -0.060548008 23.128131
0.26210038 -0.05 -0.06025274 23.211422
0.25694185 -0.05 -0.059947472 23.294014
0.25185846 -0.05 -0.059632451 23.376014
0.24684911 -0.05 -0.05930788 23.458524
0.24191281 -0.05 -0.058973904 23.540133
0.23704855 -0.05 -0.058630758 23.621041
0.2322553 -0.05 -0.058278647 23.70026
0.22753208 -0.05 -0.057917793 23.777956
0.22287791 -0.05 -0.057548401 23.854478
0.21829186 -0.05 -0.057170606 23.929859
0.21377297 -0.05 -0.056784634 24.004884
0.2093203 -0.05 -0.05639067 24.079907
0.20493294 -0.05 -0.055988812 24.153177
0.20061 -0.05 -0.055579288 24.22512
0.19635058 -0.05 -0.055162276 24.296155
0.19215378 -0.05 -0.054737974 24.367014
0.18801877 -0.05 -0.05430655 24.438243
0.18394468 -0.05 -0.053868054 24.508682
0.17993067 -0.05 -0.053422706 24.578734
0.17597593 -0.05 -0.052970667 24.648999
0.17207962 -0.05 -0.05251206 24.718059
0.16824096 -0.05 -0.052047066 24.786656
0.16445914 -0.05 -0.051575811 24.853447
0.1607334 -0.05 -0.051098405 24.918089
0.15706296 -0.05 -0.050614948 24.979812
0.15344707 -0.05 -0.050125633 25.039887
0.149885 -0.05 -0.049630544 25.098668
0.146376 -0.05 -0.049129797 25.155915
0.14291936 -0.05 -0.04862351 25.213163
0.13951437 -0.05 -0.048111749 25.268893
0.13616032 -0.05 -0.047594644 25.323006
0.13285654 -0.05 -0.047072285 25.375787
0.12960234 -0.05 -0.046544813 25.426821
0.12639705 -0.05 -0.046012311 25.477117
0.12324004 -0.05 -0.045474779 25.525274
0.12013065 -0.05 -0.044932375 25.571739
0.11706824 -0.05 -0.044385192 25.616879
0.11405219 -0.05 -0.043833223 25.659057
0.11108192 -0.05 -0.043276517 25.698506
0.10815681 -0.05 -0.042715179 25.734965
0.10527627 -0.05 -0.04214922 25.768403
0.10243972 -0.05 -0.041578706 25.796953
0.099646563 -0.05 -0.04100377 25.822833
0.096896277 -0.05 -0.040424332 25.844488
0.094188313 -0.05 -0.039840421 25.859362
0.091522116 -0.05 -0.039252158 25.869699
0.088897183 -0.05 -0.038659438 25.875193
0.086312994 -0.05 -0.038062302 25.87516
0.083769034 -0.05 -0.037460794 25.872788
0.081264811 -0.05 -0.03685492 25.866048
0.078799834 -0.05 -0.0362447 25.860726
0.076373661 -0.05 -0.03563001 25.85509
0.073985834 -0.05 -0.03501082 25.843563
0.071635884 -0.05 -0.034387183 25.82512
0.069323367 -0.05 -0.033759098 25.798789
0.067047882 -0.05 -0.033126432 25.76287
0.06480902 -0.05 -0.032489127 25.716941
0.062606371 -0.05 -0.031847162 25.669242
0.060439564 -0.05 -0.031200426 25.628517
0.058308232 -0.05 -0.030548817 25.593286
0.056212015 -0.05 -0.029892257 25.565438
0.054150579 -0.05 -0.02923063 25.55367
0.052123573 -0.05 -0.028563883 25.548642
0.050130718 -0.05 -0.027891814 25.550601
0.04817173 -0.05 -0.027214258 25.550326
0.046246308 -0.05 -0.026531136 25.550178
0.044354207 -0.05 -0.025842253 25.546837
0.0424952 -0.05 -0.025147411 25.541762
0.04066911 -0.05 -0.024446325 25.532795
0.038875743 -0.05 -0.023738794 25.519818
0.037114912 -0.05 -0.023024658 25.509721
0.035386495 -0.05 -0.022303623 25.506878
0.033690404 -0.05 -0.02157538 25.508343
0.032026582 -0.05 -0.020839609 25.514241
0.030394989 -0.05 -0.020095995 25.51995
0.028795635 -0.05 -0.019344182 25.525311
0.027228597 -0.05 -0.018583743 25.525191
0.025693963 -0.05 -0.0178143 25.51753
0.024191904 -0.05 -0.017035375 25.501797
0.022722652 -0.05 -0.016246461 25.473031
0.021286493 -0.05 -0.015447061 25.430574
0.019883838 -0.05 -0.014636567 25.371844
0.018515121 -0.05 -0.013814426 25.293343
0.017180948 -0.05 -0.012979939 25.200788
0.015882014 -0.05 -0.01213238 25.082227
0.014619105 -0.05 -0.011271041 24.931716
0.013393204 -0.05 -0.010395117 24.747383
0.012205472 -0.05 -0.009503801 24.524885
0.01105727 -0.05 -0.0085962591 24.253095
0.009950191 -0.05 -0.0076715643 23.926365
0.0088860262 -0.05 -0.0067287406 23.527973
0.0078668752 -0.05 -0.0057670217 23.0471
0.0068952612 -0.05 -0.004785676 22.468797
0.0059739595 -0.05 -0.0037837327 21.774123
0.0051060561 -0.05 -0.002760593 20.934216
0.004295287 -0.05 -0.0017162477 19.925778
0.0035455351 -0.05 -0.00065048159 18.707712
0.0028608767 -0.05 0.00043635929 17.23241
0.0022459924 -0.05 0.0015427614 15.422279
0.0017053919 -0.05 0.0026670645 13.188699
0.0012433094 -0.05 0.0038065941 10.297978
0.00086350259 -0.05 0.0049571555 7.4127079
0.00056886836 -0.05 0.0061142259 3.3186414
0.00036094045 -0.05 0.0072724329 5.9225782
0.00023955402 -0.05 0.0084257202 9.3094238
0.00020296523 -0.05 0.0095680889 12.584148
0.99626134 -0.05 -0.030730727 3.1502538
0.99001698 -0.05 -0.031373949 5.9230511
0.98377188 -0.05 -0.032010148 5.7150903
0.97752608 -0.05 -0.032639351 6.1535625
0.97127959 -0.05 -0.033261668 6.3519167
0.96503244 -0.05 -0.033877256 6.5923946
0.95878462 -0.05 -0.034486098 6.7921299
0.95253616 -0.05 -0.03508826 6.9816124
0.94628707 -0.05 -0.035683896 7.1563411
0.94003737 -0.05 -0.036273091 7.3210451
0.93378707 -0.05 -0.036855851 7.4769707
0.92753618 -0.05 -0.037432238 7.6248083
0.9212847 -0.05 -0.038002327 7.7658888
0.91503267 -0.05 -0.038566154 7.9020146
0.90878008 -0.05 -0.039123872 8.0340924
0.90252695 -0.05 -0.039675477 8.1618634
0.89627329 -0.05 -0.040221002 8.2851632
0.89001911 -0.05 -0.040760585 8.4061859
0.88376443 -0.05 -0.041294238 8.5252368
0.87750923 -0.05 -0.041821904 8.6411235
0.87125354 -0.05 -0.042343723 8.7546153
0.86499738 -0.05 -0.042859763 8.8678227
0.85874074 -0.05 -0.043369995 8.9795882
0.85248363 -0.05 -0.043874506 9.0905744
0.84622608 -0.05 -0.04437336 9.2014842
0.83996807 -0.05 -0.044866544 9.3132546
0.83370962 -0.05 -0.045354019 9.4257407
0.82745072 -0.05 -0.045835964 9.5407432
0.82119141 -0.05 -0.046312338 9.6597099
0.81493168 -0.05 -0.046783095 9.7814068
0.80867153 -0.05 -0.047248314 9.9061741
0.80241098 -0.05 -0.047708005 10.03053
0.79615002 -0.05 -0.048162202 10.154647
0.78988866 -0.05 -0.048610858 10.27725
0.78362691 -0.05 -0.049054061 10.399302
0.77736479 -0.05 -0.049491775 10.520785
0.77110227 -0.05 -0.049923969 10.640877
0.76483938 -0.05 -0.050350704 10.761299
0.75857611 -0.05 -0.050771966 10.881621
0.75231249 -0.05 -0.051187745 11.001946
0.7460485 -0.05 -0.051598015 11.122153
0.73978415 -0.05 -0.052002758 11.241426
0.73351945 -0.05 -0.052401962 11.360245
0.72725439 -0.05 -0.052795589 11.479024
0.72098899 -0.05 -0.053183675 11.598239
0.71472325 -0.05 -0.053566248 11.719245
0.70845716 -0.05 -0.053943135 11.840619
0.70219074 -0.05 -0.054314386 11.962092
0.69592398 -0.05 -0.054679967 12.085197
0.68965688 -0.05 -0.055039784 12.208002
0.68338947 -0.05 -0.055393895 12.332582
0.67712173 -0.05 -0.055742201 12.457519
0.67085367 -0.05 -0.056084714 12.583799
0.66458529 -0.05 -0.056421316 12.711332
0.65831659 -0.05 -0.056751906 12.838918
0.65204758 -0.05 -0.057076571 12.968153
0.64577826 -0.05 -0.057395224 13.099089
0.63950863 -0.05 -0.057707698 13.23049
0.63323869 -0.05 -0.058013961 13.362802
0.62696846 -0.05 -0.058314015 13.496527
0.62069792 -0.05 -0.058607723 13.631468
0.61442709 -0.05 -0.058895 13.767323
0.60815597 -0.05 -0.059175843 13.905237
0.60188455 -0.05 -0.059450108 14.044094
0.59561285 -0.05 -0.059717722 14.184037
0.58934086 -0.05 -0.059978601 14.325712
0.58306859 -0.05 -0.060232655 14.468844
0.57679604 -0.05 -0.060479769 14.613496
0.57052322 -0.05 -0.060719797 14.758887
0.56425013 -0.05 -0.060952708 14.906002
0.55797678 -0.05 -0.061178378 15.054814
0.55170316 -0.05 -0.061396646 15.204808
0.54542929 -0.05 -0.061607441 15.35666
0.53915517 -0.05 -0.061810601 15.510081
0.53288081 -0.05 -0.062005986 15.664506
0.5266062 -0.05 -0.062193525 15.820799
0.52033136 -0.05 -0.062373048 15.978652
0.51405628 -0.05 -0.06254441 16.138227
0.50778099 -0.05 -0.062707446 16.299394
0.50150548 -0.05 -0.062862016 16.461827
0.49522978 -0.05 -0.063007999 16.626463
0.48895386 -0.05 -0.063145197 16.792613
0.48267775 -0.05 -0.063273406 16.95998
0.47640148 -0.05 -0.063392503 17.128648
0.47012503 -0.05 -0.063502348 17.299723
0.46384842 -0.05 -0.063602693 17.472439
0.45757166 -0.05 -0.063693322 17.646469
0.45129478 -0.05 -0.063774075 17.821895
0.44501776 -0.05 -0.063844768 17.999395
0.43874064 -0.05 -0.063905174 18.178666
0.43246343 -0.05 -0.063955055 18.359355
0.42618614 -0.05 -0.063994201 18.541156
0.4199088 -0.05 -0.064022412 18.724754
0.41363141 -0.05 -0.064039441 18.910078
0.40735401 -0.05 -0.06404501 19.096893
0.4010766 -0.05 -0.064038895 19.285417
0.39479922 -0.05 -0.064020811 19.475905
0.38852188 -0.05 -0.06399045 19.667201
0.38224462 -0.05 -0.063947598 19.860173
0.37596746 -0.05 -0.063892015 20.055134
0.36969043 -0.05 -0.063823303 20.25135
0.36341355 -0.05 -0.063741143 20.448133
0.35713688 -0.05 -0.063645294 20.646783
0.35086043 -0.05 -0.063535421 20.846702
0.34458426 -0.05 -0.063411169 21.048185
0.33830839 -0.05 -0.063272151 21.250518
0.33203287 -0.05 -0.06311804 21.454145
0.32575776 -0.05 -0.062948446 21.65885
0.3194831 -0.05 -0.062762947 21.863879
0.31320893 -0.05 -0.062561153 22.068911
0.30693532 -0.05 -0.062342654 22.28293
0.30066235 -0.05 -0.062107018 22.717587
0.29955491 -0.05 0.058042563 23.054036
0.29392178 -0.05 0.058257694 23.115574
0.2883692 -0.05 0.058455169 22.977811
0.28289606 -0.05 0.058635244 22.848597
0.27750125 -0.05 0.058798232 22.722849
0.27218367 -0.05 0.058944475 22.602562
0.26694226 -0.05 0.059074291 22.486976
0.26177596 -0.05 0.059187969 22.376164
0.25668374 -0.05 0.059285839 22.270309
0.25166458 -0.05 0.059368189 22.169729
0.24671745 -0.05 0.059435247 22.073092
0.24184136 -0.05 0.059487332 21.980742
0.23703535 -0.05 0.059524725 21.892365
0.23229842 -0.05 0.059547731 21.807658
0.22762963 -0.05 0.059556633 21.727233
0.22302804 -0.05 0.05955164 21.650638
0.21849273 -0.05 0.059533056 21.578277
0.21402278 -0.05 0.059501141 21.510882
0.2096173 -0.05 0.059456066 21.446623
0.20527538 -0.05 0.059398131 21.385991
0.20099617 -0.05 0.059327588 21.329159
0.1967788 -0.05 0.059244702 21.27609
0.19262243 -0.05 0.059149713 21.227378
0.1885262 -0.05 0.059042741 21.181575
0.1844893 -0.05 0.05892407 21.139183
0.18051094 -0.05 0.058793928 21.101173
0.17659029 -0.05 0.058652507 21.065856
0.17272657 -0.05 0.058500048 21.034671
0.16891901 -0.05 0.058336745 21.006564
0.16516683 -0.05 0.058162767 20.982108
0.1614693 -0.05 0.057978275 20.960213
0.15782566 -0.05 0.057783526 20.941712
0.15423518 -0.05 0.057578664 20.92664
0.15069714 -0.05 0.05736386 20.913775
0.14721085 -0.05 0.057139294 20.904173
0.14377558 -0.05 0.056905087 20.896686
0.14039066 -0.05 0.056661426 20.891609
0.13705542 -0.05 0.056408455 20.889197
0.13376918 -0.05 0.056146371 20.889177
0.13053129 -0.05 0.05587531 20.892597
0.12734111 -0.05 0.055595326 20.897429
0.124198 -0.05 0.055306626 20.90452
0.12110132 -0.05 0.055009359 20.915298
0.11805047 -0.05 0.054703562 20.928379
0.11504486 -0.05 0.054389336 20.943954
0.11208388 -0.05 0.054066836 20.961884
0.10916695 -0.05 0.053736117 20.982126
0.10629351 -0.05 0.053397295 21.00252
0.10346296 -0.05 0.05305055 21.025578
0.10067477 -0.05 0.052695843 21.049715
0.097928399 -0.05 0.05233325 21.073367
0.095223305 -0.05 0.051962935 21.099652
0.09255898 -0.05 0.051584834 21.127681
0.089934907 -0.05 0.051199032 21.155367
0.087350578 -0.05 0.050805612 21.187141
0.084805499 -0.05 0.050404621 21.219756
0.082299186 -0.05 0.049996119 21.256931
0.079831186 -0.05 0.049580017 21.295255
0.077401042 -0.05 0.049156324 21.333868
0.075008291 -0.05 0.048725129 21.373241
0.07265249 -0.05 0.048286468 21.414908
0.070333227 -0.05 0.047840241 21.457069
0.068050091 -0.05 0.047386424 21.49859
0.065802672 -0.05 0.046925026 21.54199
0.063590589 -0.05 0.04645597 21.586553
0.06141347 -0.05 0.045979184 21.631489
0.059270951 -0.05 0.045494618 21.677182
0.057162686 -0.05 0.045002181 21.724266
0.055088326 -0.05 0.044501852 21.771706
0.053047572 -0.05 0.043993453 21.824008
0.051040127 -0.05 0.043476841 21.876179
0.049065689 -0.05 0.042951962 21.935523
0.047123995 -0.05 0.042418641 21.997945
0.045214805 -0.05 0.0418767 22.063181
0.043337916 -0.05 0.041325869 22.127507
0.041493121 -0.05 0.040765962 22.190154
0.039680219 -0.05 0.040196834 22.255652
0.037899066 -0.05 0.039618206 22.328216
0.03614955 -0.05 0.039029774 22.404842
0.034431585 -0.05 0.038431224 22.485897
0.032745109 -0.05 0.037822245 22.569557
0.031090102 -0.05 0.037202483 22.662181
0.029466605 -0.05 0.036571505 22.766118
0.027874675 -0.05 0.035928926 22.889668
0.026314445 -0.05 0.035274258 23.01847
0.024786107 -0.05 0.034606976 23.143578
0.023289903 -0.05 0.033926562 23.263343
0.021826193 -0.05 0.033232374 23.364916
0.020395365 -0.05 0.032523829 23.445123
0.018997969 -0.05 0.03180018 23.532193
0.017634636 -0.05 0.031060647 23.6277
0.016306093 -0.05 0.030304458 23.752542
0.015013256 -0.05 0.029530737 23.903413
0.013757215 -0.05 0.028738581 24.105157
0.012539259 -0.05 0.027927049 24.364847
0.0113609 -0.05 0.02709509 24.708888
0.010223847 -0.05 0.026241583 25.147641
0.0091301283 -0.05 0.025365597 25.73345
0.0080822001 -0.05 0.024466198 26.390202
0.0070827501 -0.05 0.023542192 27.019543
0.0061348055 -0.05 0.022592733 27.514472
0.0052420895 -0.05 0.021617509 27.848311
0.0044084543 -0.05 0.020615991 27.970607
0.0036379913 -0.05 0.019588194 27.8645
0.0029354882 -0.05 0.018535247 27.520677
0.0023055743 -0.05 0.017458439 26.885373
0.0017526867 -0.05 0.016360094 25.906778
0.0012809104 -0.05 0.015244087 24.568656
0.00089349931 -0.05 0.014114692 22.868533
0.00059241748 -0.05 0.012977138 20.81772
0.00037799121 -0.05 0.011837477 18.397009
0.00024896841 -0.05 0.010701828 15.651912
0.9962978 -0.05 -0.029832114 23.854594
0.99012608 -0.05 -0.02868509 21.154631
0.98395306 -0.05 -0.027545008 21.787666
0.97777877 -0.05 -0.02641184 22.63262
0.97160324 -0.05 -0.025285482 23.367999
0.96542649 -0.05 -0.024165775 24.076097
0.95924855 -0.05 -0.023052738 24.737454
0.95306942 -0.05 -0.021946309 25.375592
0.94688913 -0.05 -0.020846333 25.961375
0.94070771 -0.05 -0.019752726 26.514683
0.93452517 -0.05 -0.018665483 27.022741
0.92834153 -0.05 -0.017584547 27.506757
0.92215679 -0.05 -0.016509841 27.9463
0.91597098 -0.05 -0.015441329 28.356365
0.90978414 -0.05 -0.014378862 28.732002
0.90359626 -0.05 -0.013322444 29.086218
0.89740736 -0.05 -0.012272044 29.402758
0.89121746 -0.05 -0.011227524 29.68984
0.88502657 -0.05 -0.010188873 29.943893
0.87883469 -0.05 -0.009156148 30.168959
0.87264185 -0.05 -0.0081292114 30.365084
0.86644806 -0.05 -0.007107996 30.53718
0.86025333 -0.05 -0.0060925305 30.689216
0.85405767 -0.05 -0.0050827293 30.821502
0.8478611 -0.05 -0.0040785301 30.93325
0.84166362 -0.05 -0.003079947 31.020391
0.83546524 -0.05 -0.002087016 31.081321
0.82926597 -0.05 -0.001099563 31.112231
0.82306583 -0.05 -0.00011762805 31.119071
0.81686482 -0.05 0.00085874232 31.107889
0.81066295 -0.05 0.0018296272 31.085877
0.80446021 -0.05 0.0027950359 31.050414
0.79825664 -0.05 0.0037549996 31.007268
0.79205222 -0.05 0.0047094733 30.954253
0.78584696 -0.05 0.0056585429 30.894656
0.77964089 -0.05 0.0066021733 30.826376
0.77343397 -0.05 0.0075403329 30.753223
0.76722625 -0.05 0.0084730822 30.674565
0.76101771 -0.05 0.009400407 30.591948
0.75480836 -0.05 0.010322297 30.501231
0.7485982 -0.05 0.011238724 30.407061
0.74238724 -0.05 0.012149671 30.307712
0.73617546 -0.05 0.013055127 30.204787
0.7299629 -0.05 0.013955052 30.096374
0.72374954 -0.05 0.014849483 29.985605
0.71753539 -0.05 0.015738446 29.871709
0.71132043 -0.05 0.01662177 29.754692
0.70510469 -0.05 0.017499503 29.633418
0.69888816 -0.05 0.018371613 29.510488
0.69267082 -0.05 0.019238004 29.384241
0.6864527 -0.05 0.020098735 29.25637
0.68023379 -0.05 0.020953707 29.12505
0.67401408 -0.05 0.021802929 28.992536
0.66779357 -0.05 0.022646286 28.85719
0.66157227 -0.05 0.023483678 28.720736
0.65535018 -0.05 0.024315188 28.581079
0.64912729 -0.05 0.025140731 28.439107
0.64290358 -0.05 0.025960141 28.299902
0.63667907 -0.05 0.026773385 28.164403
0.63045376 -0.05 0.027580465 28.030372
0.62422763 -0.05 0.028381244 27.898779
0.61800069 -0.05 0.029175637 27.769346
0.61177293 -0.05 0.029963641 27.643498
0.60554436 -0.05 0.030745111 27.520343
0.59931495 -0.05 0.031519976 27.401012
0.59308472 -0.05 0.032288153 27.285079
0.58685365 -0.05 0.033049549 27.171962
0.58062175 -0.05 0.03380405 27.060468
0.574389 -0.05 0.034551511 26.950351
0.5681554 -0.05 0.035291898 26.841637
0.56192096 -0.05 0.036025091 26.734152
0.55568565 -0.05 0.036750928 26.627142
0.54944949 -0.05 0.037469337 26.521607
0.54321245 -0.05 0.038180156 26.416999
0.53697453 -0.05 0.038883245 26.313153
0.53073575 -0.05 0.039578534 26.210362
0.52449608 -0.05 0.040265851 26.108785
0.51825552 -0.05 0.040945055 26.008163
0.51201407 -0.05 0.041615977 25.908437
0.50577171 -0.05 0.042278478 25.809418
0.49952847 -0.05 0.042932437 25.711945
0.4932843 -0.05 0.043577655 25.615438
0.48703922 -0.05 0.04421393 25.51991
0.48079322 -0.05 0.044841137 25.425306
0.47454631 -0.05 0.045459137 25.332656
0.46829846 -0.05 0.046067681 25.240997
0.46204968 -0.05 0.046666552 25.150202
0.45579997 -0.05 0.047255591 25.060189
0.44954932 -0.05 0.047834613 24.971743
0.44329773 -0.05 0.04840339 24.884417
0.4370452 -0.05 0.048961684 24.798226
0.43079172 -0.05 0.049509285 24.712913
0.42453729 -0.05 0.050045992 24.629399
0.41828192 -0.05 0.050571556 24.547258
0.4120256 -0.05 0.0510857 24.466441
0.40576835 -0.05 0.051588198 24.386723
0.39951013 -0.05 0.052078765 24.308767
0.39325097 -0.05 0.052557091 24.231614
0.38699088 -0.05 0.053022961 24.156358
0.38072985 -0.05 0.053476134 24.083313
0.37446788 -0.05 0.05391621 24.011961
0.36820499 -0.05 0.05434287 23.941965
0.36194118 -0.05 0.05475587 23.874599
0.35567647 -0.05 0.055154874 23.810101
0.34941086 -0.05 0.055539524 23.749175
0.34314436 -0.05 0.055909432 23.691827
0.33687699 -0.05 0.056264267 23.638537
0.33060876 -0.05 0.056603638 23.588709
0.32433969 -0.05 0.056927119 23.540984
0.31806981 -0.05 0.057234321 23.495951
0.31179913 -0.05 0.057524825 23.454883
0.30552767 -0.05 0.057798197 23.181952
