# p  FACE_DATA 448
# x y z  p
0.29773926 -0.05 -0.059544879 99544.183
0.29210216 -0.05 -0.059585987 99538.389
0.28654614 -0.05 -0.059611935 99532.554
0.28107004 -0.05 -0.059622943 99526.901
0.27567276 -0.05 -0.059619291 99521.365
0.27035321 -0.05 -0.059601286 99516.1
0.26511029 -0.05 -0.059569214 99510.916
0.25994294 -0.05 -0.059523329 99505.952
0.25485014 -0.05 -0.059463933 99500.907
0.24983081 -0.05 -0.05939128 99496.062
0.24488398 -0.05 -0.059305565 99491.428
0.24000861 -0.05 -0.059207077 99487.035
0.23520372 -0.05 -0.059096069 99482.763
0.23046835 -0.05 -0.058972813 99478.481
0.22580151 -0.05 -0.058837564 99474.231
0.22120227 -0.05 -0.058690502 99470.249
0.21666969 -0.05 -0.0585319 99466.293
0.21220286 -0.05 -0.058361994 99462.594
0.20780086 -0.05 -0.058180921 99459.081
0.20346281 -0.05 -0.05798896 99455.623
0.19918782 -0.05 -0.057786331 99452.334
0.19497502 -0.05 -0.057573275 99449.143
0.19082355 -0.05 -0.057350006 99446.147
0.18673259 -0.05 -0.057116616 99443.362
0.18270129 -0.05 -0.056873365 99440.446
0.17872884 -0.05 -0.056620454 99437.654
0.17481442 -0.05 -0.056358051 99434.921
0.17095725 -0.05 -0.056086374 99432.461
0.16715654 -0.05 -0.055805592 99430.046
0.16341152 -0.05 -0.05551585 99427.867
0.15972145 -0.05 -0.055217286 99425.813
0.15608556 -0.05 -0.054910135 99423.9
0.15250311 -0.05 -0.054594515 99422.333
0.1489734 -0.05 -0.054270578 99420.935
0.14549569 -0.05 -0.053938481 99419.774
0.1420693 -0.05 -0.053598323 99418.76
0.13869352 -0.05 -0.053250271 99417.838
0.13536768 -0.05 -0.052894446 99417.145
0.1320911 -0.05 -0.052531027 99416.451
0.12886312 -0.05 -0.052160126 99416.039
0.1256831 -0.05 -0.051781779 99415.862
0.12255041 -0.05 -0.051396175 99415.707
0.11946438 -0.05 -0.05100344 99415.744
0.11642443 -0.05 -0.050603597 99416.041
0.11342995 -0.05 -0.050196723 99416.519
0.11048034 -0.05 -0.049782958 99417.117
0.10757502 -0.05 -0.049362338 99418.115
0.1047134 -0.05 -0.048934961 99419.123
0.10189491 -0.05 -0.048500989 99420.243
0.099118997 -0.05 -0.048060367 99421.828
0.09638513 -0.05 -0.047613154 99423.441
0.093692759 -0.05 -0.047159497 99425.193
0.091041378 -0.05 -0.046699316 99427.494
0.088430467 -0.05 -0.046232681 99429.841
0.085859515 -0.05 -0.045759659 99432.614
0.083328031 -0.05 -0.045280281 99435.333
0.080835525 -0.05 -0.044794592 99438.309
0.078381549 -0.05 -0.04430249 99441.717
0.075965645 -0.05 -0.043803969 99445.561
0.073587348 -0.05 -0.043299105 99449.551
0.071246213 -0.05 -0.042787918 99453.826
0.068941832 -0.05 -0.042270297 99458.602
0.066673797 -0.05 -0.041746206 99463.597
0.064441695 -0.05 -0.04121564 99468.958
0.062245148 -0.05 -0.04067851 99474.786
0.060083788 -0.05 -0.040134733 99481.068
0.057957251 -0.05 -0.039584249 99487.787
0.055865195 -0.05 -0.039026956 99495.037
0.053807271 -0.05 -0.03846282 99502.496
0.051783185 -0.05 -0.037891656 99510.921
0.049792649 -0.05 -0.037313312 99519.668
0.047835357 -0.05 -0.036727723 99529.092
0.045911056 -0.05 -0.036134707 99539.015
0.044019507 -0.05 -0.035534078 99549.686
0.04216052 -0.05 -0.034925562 99561.428
0.040333891 -0.05 -0.034308964 99574.156
0.038539425 -0.05 -0.033684136 99587.478
0.036776986 -0.05 -0.033050791 99601.672
0.035046472 -0.05 -0.032408623 99616.999
0.033347806 -0.05 -0.031757318 99633.531
0.031680935 -0.05 -0.031096559 99651.312
0.030045852 -0.05 -0.030425995 99670.581
0.028442611 -0.05 -0.029745193 99691.382
0.02687128 -0.05 -0.029053771 99713.729
0.025332007 -0.05 -0.028351244 99738.032
0.023824998 -0.05 -0.027637093 99764.312
0.022350514 -0.05 -0.026910809 99792.787
0.020908935 -0.05 -0.026171761 99823.862
0.019500666 -0.05 -0.025419377 99857.397
0.018126278 -0.05 -0.024652929 99894.286
0.016786428 -0.05 -0.023871655 99934.385
0.015481866 -0.05 -0.02307481 99978.337
0.014213533 -0.05 -0.022261541 100026.27
0.012982548 -0.05 -0.021430982 100078.66
0.011790228 -0.05 -0.020582234 100135.82
0.010638118 -0.05 -0.01971429 100199.32
0.0095279582 -0.05 -0.018826085 100269.23
0.0084618068 -0.05 -0.017916749 100345.07
0.0074421468 -0.05 -0.016985423 100427.86
0.0064717016 -0.05 -0.016031 100517.96
0.0055535231 -0.05 -0.015052727 100614.77
0.0046913422 -0.05 -0.014050405 100719.1
0.0038890259 -0.05 -0.013023627 100829.49
0.003150663 -0.05 -0.011972532 100944.41
0.0024810041 -0.05 -0.010898397 101061.63
0.0018846365 -0.05 -0.0098026548 101177.98
0.0013659234 -0.05 -0.0086877624 101288.65
0.00092882832 -0.05 -0.0075577215 101387.55
0.00057647156 -0.05 -0.0064169032 101469.79
0.00031065473 -0.05 -0.0052705967 101533.03
0.00013151723 -0.05 -0.0041248585 101571.66
3.7618632e-05 -0.05 -0.0029857677 101584.55
0.99686307 -0.05 0.0067762593 99951.522
0.99065887 -0.05 0.0058203322 99968.725
0.9844536 -0.05 0.0048713824 99955.639
0.97824727 -0.05 0.0039293832 99962.113
0.9720399 -0.05 0.0029942287 99958.239
0.96583154 -0.05 0.0020657606 99959.186
0.95962217 -0.05 0.0011439962 99957.647
0.95341182 -0.05 0.00022887212 99957.219
0.94720052 -0.05 -0.00067976616 99956.167
0.94098828 -0.05 -0.001582003 99955.374
0.93477512 -0.05 -0.0024778433 99954.359
0.92856106 -0.05 -0.0033673468 99953.428
0.92234609 -0.05 -0.0042505902 99952.36
0.91613024 -0.05 -0.0051276082 99951.349
0.90991354 -0.05 -0.0059985517 99950.218
0.90369599 -0.05 -0.0068634181 99949.13
0.89747762 -0.05 -0.0077222388 99947.942
0.89125842 -0.05 -0.0085751496 99946.773
0.88503841 -0.05 -0.0094221639 99945.513
0.8788176 -0.05 -0.010263225 99944.266
0.872596 -0.05 -0.011098471 99942.933
0.86637363 -0.05 -0.011927969 99941.619
0.86015051 -0.05 -0.012751691 99940.215
0.85392662 -0.05 -0.013569722 99938.823
0.84770199 -0.05 -0.014382126 99937.352
0.84147664 -0.05 -0.015188889 99935.875
0.83525056 -0.05 -0.015989973 99934.324
0.82902377 -0.05 -0.016785556 99932.756
0.82279627 -0.05 -0.017575596 99931.122
0.81656807 -0.05 -0.018360047 99929.473
0.81033917 -0.05 -0.019138989 99927.757
0.80410959 -0.05 -0.019912431 99926.023
0.79787933 -0.05 -0.020680404 99924.227
0.79164839 -0.05 -0.021442864 99922.399
0.78541681 -0.05 -0.022199897 99920.507
0.77918455 -0.05 -0.022951467 99918.582
0.77295163 -0.05 -0.023697543 99916.6
0.76671807 -0.05 -0.024438187 99914.583
0.76048385 -0.05 -0.025173384 99912.494
0.75424899 -0.05 -0.025903122 99910.366
0.74801351 -0.05 -0.026627377 99908.173
0.74177738 -0.05 -0.027346129 99905.932
0.73554062 -0.05 -0.028059367 99903.63
0.72930323 -0.05 -0.028767054 99901.276
0.72306521 -0.05 -0.029469223 99898.861
0.71682658 -0.05 -0.030165904 99896.387
0.71058732 -0.05 -0.030856922 99893.855
0.70434744 -0.05 -0.031542328 99891.241
0.69810694 -0.05 -0.032222089 99888.579
0.69186582 -0.05 -0.03289611 99885.827
0.68562408 -0.05 -0.033564448 99883.008
0.67938174 -0.05 -0.034227006 99880.112
0.67313878 -0.05 -0.034883792 99877.134
0.6668952 -0.05 -0.035534692 99874.089
0.66065101 -0.05 -0.036179604 99870.95
0.65440621 -0.05 -0.036818613 99867.718
0.6481608 -0.05 -0.037451634 99864.407
0.64191476 -0.05 -0.038078499 99861.019
0.63566811 -0.05 -0.038699176 99857.538
0.62942085 -0.05 -0.039313667 99853.952
0.62317296 -0.05 -0.039921835 99850.276
0.61692446 -0.05 -0.040523595 99846.499
0.61067535 -0.05 -0.041118944 99842.623
0.60442561 -0.05 -0.041707737 99838.656
0.59817526 -0.05 -0.042289903 99834.542
0.59192428 -0.05 -0.042865357 99830.34
0.58567267 -0.05 -0.04343401 99826.02
0.57942045 -0.05 -0.043995743 99821.647
0.57316758 -0.05 -0.044550413 99817.142
0.5669141 -0.05 -0.045097988 99812.517
0.56066 -0.05 -0.045638346 99807.792
0.55440525 -0.05 -0.046171324 99802.986
0.54814988 -0.05 -0.046696852 99798.027
0.54189387 -0.05 -0.047214765 99792.99
0.53563723 -0.05 -0.047724927 99787.811
0.52937994 -0.05 -0.048227265 99782.553
0.52312203 -0.05 -0.048721607 99777.177
0.51686348 -0.05 -0.049207812 99771.691
0.51060428 -0.05 -0.049685712 99766.089
0.50434445 -0.05 -0.050155168 99760.392
0.49808398 -0.05 -0.050616057 99754.557
0.49182287 -0.05 -0.051068182 99748.649
0.48556112 -0.05 -0.05151134 99742.598
0.47929874 -0.05 -0.051945405 99736.421
0.47303573 -0.05 -0.052370239 99730.189
0.46677208 -0.05 -0.052785593 99724.052
0.46050779 -0.05 -0.05319125 99717.872
0.45424287 -0.05 -0.05358705 99711.595
0.44797732 -0.05 -0.05397281 99705.199
0.44171115 -0.05 -0.054348302 99698.768
0.43544436 -0.05 -0.054713286 99692.223
0.42917695 -0.05 -0.055067551 99685.623
0.42290894 -0.05 -0.055410899 99678.966
0.41664032 -0.05 -0.055743081 99672.334
0.41037111 -0.05 -0.056063819 99665.631
0.40410132 -0.05 -0.056372887 99658.85
0.39783095 -0.05 -0.056670001 99652.041
0.39156 -0.05 -0.05695485 99645.313
0.38528851 -0.05 -0.05722722 99638.479
0.37901647 -0.05 -0.057486869 99631.582
0.3727439 -0.05 -0.057733401 99624.753
0.36647083 -0.05 -0.057966493 99617.971
0.36019725 -0.05 -0.058185904 99611.139
0.3539232 -0.05 -0.058391297 99604.278
0.34764871 -0.05 -0.058582315 99597.421
0.34137377 -0.05 -0.058758571 99590.689
0.33509843 -0.05 -0.058919735 99583.844
0.32882272 -0.05 -0.059065415 99577.067
0.32254666 -0.05 -0.059195187 99570.33
0.31627027 -0.05 -0.059308662 99563.683
0.30999361 -0.05 -0.059405424 99556.815
0.30371671 -0.05 -0.059485037 99550.268
0.29657822 -0.05 0.060457408 99424.964
0.29094139 -0.05 0.06038944 99419.334
0.2853859 -0.05 0.060307882 99414.215
0.27991062 -0.05 0.060212935 99409.121
0.27451442 -0.05 0.060104856 99404.145
0.26919621 -0.05 0.05998393 99399.288
0.26395489 -0.05 0.059850422 99394.55
0.25878941 -0.05 0.059704567 99389.955
0.2536987 -0.05 0.059546643 99385.377
0.24868173 -0.05 0.059376889 99380.977
0.24373747 -0.05 0.059195476 99376.737
0.23886492 -0.05 0.059002677 99372.608
0.23406308 -0.05 0.058798723 99368.591
0.22933097 -0.05 0.058583868 99364.636
0.22466763 -0.05 0.058358349 99360.817
0.2200721 -0.05 0.058122327 99357.153
0.21554344 -0.05 0.057876058 99353.525
0.21108073 -0.05 0.057619756 99350.061
0.20668306 -0.05 0.057353547 99346.755
0.20234953 -0.05 0.057077688 99343.537
0.19807926 -0.05 0.056792383 99340.488
0.19387137 -0.05 0.056497856 99337.46
0.18972501 -0.05 0.056194305 99334.599
0.18563931 -0.05 0.055881804 99331.922
0.18161347 -0.05 0.055560599 99329.269
0.17764666 -0.05 0.055230876 99326.82
0.17373806 -0.05 0.054892785 99324.443
0.16988687 -0.05 0.054546529 99322.216
0.16609231 -0.05 0.054192262 99320.067
0.1623536 -0.05 0.053830114 99318.105
0.15866999 -0.05 0.05346021 99316.264
0.15504072 -0.05 0.053082767 99314.519
0.15146505 -0.05 0.052697893 99312.989
0.14794226 -0.05 0.052305722 99311.507
0.14447163 -0.05 0.051906399 99310.187
0.14105246 -0.05 0.05150001 99308.996
0.13768405 -0.05 0.051086707 99307.968
0.13436572 -0.05 0.0506666 99307.089
0.13109679 -0.05 0.050239851 99306.249
0.12787659 -0.05 0.049806564 99305.636
0.12470449 -0.05 0.049366761 99305.261
0.12157983 -0.05 0.048920616 99304.918
0.11850199 -0.05 0.048468245 99304.728
0.11547034 -0.05 0.048009658 99304.697
0.1124843 -0.05 0.047544923 99304.829
0.10954325 -0.05 0.047074165 99305.061
0.1066466 -0.05 0.046597411 99305.611
0.10379379 -0.05 0.046114746 99306.248
0.10098422 -0.05 0.045626321 99307.098
0.098217351 -0.05 0.045132073 99308.245
0.095492651 -0.05 0.044632049 99309.414
0.092809562 -0.05 0.044126383 99310.683
0.09016758 -0.05 0.043614989 99312.34
0.087566186 -0.05 0.043097924 99314.127
0.085004869 -0.05 0.042575247 99316.309
0.082483133 -0.05 0.042046979 99318.601
0.080000491 -0.05 0.041513155 99321.193
0.077556496 -0.05 0.040973664 99324.033
0.075150691 -0.05 0.040428493 99327.112
0.072782606 -0.05 0.039877706 99330.361
0.070451799 -0.05 0.039321318 99333.945
0.068157866 -0.05 0.03875921 99337.965
0.065900395 -0.05 0.038191333 99342.295
0.063678976 -0.05 0.037617679 99346.85
0.061493234 -0.05 0.037038151 99351.673
0.0593428 -0.05 0.036452657 99356.846
0.057227311 -0.05 0.03586113 99362.581
0.05514643 -0.05 0.035263463 99368.891
0.053099806 -0.05 0.034659617 99375.628
0.051087151 -0.05 0.034049396 99382.941
0.049108177 -0.05 0.033432647 99390.398
0.047162581 -0.05 0.032809298 99398.369
0.045250114 -0.05 0.03217916 99407.044
0.043370541 -0.05 0.031542046 99416.624
0.041523675 -0.05 0.030897675 99427.111
0.039709319 -0.05 0.030245851 99438.067
0.037927278 -0.05 0.029586419 99449.648
0.036177423 -0.05 0.028919093 99462.295
0.034459658 -0.05 0.028243563 99476.186
0.032773911 -0.05 0.027559513 99491.513
0.031120137 -0.05 0.026866627 99507.783
0.029498334 -0.05 0.026164552 99524.645
0.027908566 -0.05 0.025452857 99542.684
0.026350907 -0.05 0.024731163 99562.929
0.024825514 -0.05 0.023998984 99585.596
0.023332605 -0.05 0.023255809 99610.153
0.02187245 -0.05 0.022501132 99635.976
0.02044544 -0.05 0.02173433 99664.097
0.019051992 -0.05 0.020954839 99695.36
0.01769269 -0.05 0.020161942 99729.473
0.016368208 -0.05 0.019354891 99765.928
0.015079308 -0.05 0.018532953 99805.165
0.013826947 -0.05 0.017695297 99847.276
0.012612264 -0.05 0.016841077 99894.548
0.011436589 -0.05 0.015969418 99948.957
0.010301487 -0.05 0.015079345 100011.13
0.0092087204 -0.05 0.014169826 100081.63
0.0081603626 -0.05 0.013240031 100160.88
0.007158913 -0.05 0.012289152 100246.55
0.0062071161 -0.05 0.011316131 100339.1
0.0053080373 -0.05 0.010320275 100436.9
0.0044654112 -0.05 0.0093014598 100542.95
0.0036831115 -0.05 0.00825935 100657.38
0.0029652238 -0.05 0.0071941659 100779.02
0.0023164729 -0.05 0.0061072756 100905.5
0.0017414178 -0.05 0.0050001993 101033.89
0.0012443732 -0.05 0.0038754794 101159.82
0.00082922423 -0.05 0.002737193 101278.55
0.00049900637 -0.05 0.0015897709 101383.31
0.00025541843 -0.05 0.00043853574 101469.33
9.8482612e-05 -0.05 -0.00071045401 101534.21
2.6641104e-05 -0.05 -0.0018511484 101572.96
0.99685437 -0.05 0.0076755697 100184.77
0.99063284 -0.05 0.0085112769 100078.12
0.98441037 -0.05 0.0093399873 100072.74
0.97818696 -0.05 0.010161728 100051.88
0.97196267 -0.05 0.010976606 100039.97
0.9657375 -0.05 0.011784778 100027.28
0.95951146 -0.05 0.012586228 100016.6
0.95328457 -0.05 0.013381022 100006.47
0.94705686 -0.05 0.014169311 99997.113
0.94082833 -0.05 0.014951183 99988.142
0.93459899 -0.05 0.015726641 99979.824
0.92836888 -0.05 0.016495746 99971.765
0.92213799 -0.05 0.017258575 99964.184
0.91590634 -0.05 0.018015163 99956.889
0.90967395 -0.05 0.01876566 99949.745
0.90344083 -0.05 0.019510066 99943
0.897207 -0.05 0.020248411 99936.427
0.89097246 -0.05 0.02098083 99929.942
0.88473723 -0.05 0.02170734 99923.645
0.87850131 -0.05 0.022427881 99917.695
0.87226472 -0.05 0.023142592 99911.663
0.86602747 -0.05 0.023851542 99905.86
0.85978956 -0.05 0.024554702 99900.167
0.85355102 -0.05 0.025252159 99894.598
0.84731185 -0.05 0.025943975 99889.027
0.84107205 -0.05 0.026630136 99883.632
0.83483162 -0.05 0.027310607 99878.451
0.8285906 -0.05 0.027985562 99873.057
0.82234898 -0.05 0.028654963 99867.982
0.81610677 -0.05 0.029318762 99862.831
0.80986397 -0.05 0.029977039 99857.834
0.80362059 -0.05 0.030629804 99852.801
0.79737664 -0.05 0.031277088 99847.847
0.79113212 -0.05 0.031918847 99842.99
0.78488705 -0.05 0.032555167 99838
0.77864141 -0.05 0.033186013 99833.21
0.77239522 -0.05 0.033811354 99828.376
0.7661485 -0.05 0.034431249 99823.569
0.75990122 -0.05 0.035045686 99818.764
0.75365342 -0.05 0.035654655 99814.002
0.74740508 -0.05 0.036258126 99809.241
0.74115621 -0.05 0.036856086 99804.519
0.73490682 -0.05 0.037448519 99799.82
0.7286569 -0.05 0.03803539 99795.211
0.72240648 -0.05 0.038616733 99790.484
0.71615553 -0.05 0.039192576 99785.689
0.70990407 -0.05 0.039762746 99781.099
0.70365209 -0.05 0.040327292 99776.244
0.69739961 -0.05 0.040886182 99771.602
0.69114661 -0.05 0.041439322 99766.864
0.68489312 -0.05 0.041986768 99762.134
0.67863913 -0.05 0.042528422 99757.466
0.67238463 -0.05 0.043064296 99752.68
0.66612962 -0.05 0.043594271 99748.02
0.65987412 -0.05 0.044118246 99743.339
0.65361813 -0.05 0.04463631 99738.517
0.64736163 -0.05 0.045148373 99733.67
0.64110464 -0.05 0.045654271 99728.856
0.63484715 -0.05 0.046153969 99724.019
0.62858916 -0.05 0.046647471 99719.131
0.62233069 -0.05 0.047134639 99714.351
0.61607172 -0.05 0.047615389 99709.532
0.60981225 -0.05 0.048089716 99704.652
0.60355229 -0.05 0.048557477 99699.829
0.59729185 -0.05 0.0490186 99694.905
0.5910309 -0.05 0.049473 99689.966
0.58476946 -0.05 0.049920588 99684.885
0.57850753 -0.05 0.050361245 99679.88
0.57224512 -0.05 0.050794831 99674.868
0.56598221 -0.05 0.051221308 99669.837
0.55971882 -0.05 0.051640558 99664.839
0.55345493 -0.05 0.052052417 99659.863
0.54719055 -0.05 0.052456816 99654.769
0.5409257 -0.05 0.052853589 99649.705
0.53466035 -0.05 0.0532426 99644.509
0.52839453 -0.05 0.053623776 99639.268
0.52212822 -0.05 0.053996944 99633.982
0.51586143 -0.05 0.054361966 99628.638
0.50959416 -0.05 0.05471867 99623.358
0.50332642 -0.05 0.055066922 99618.091
0.49705821 -0.05 0.055406595 99612.774
0.49078952 -0.05 0.055737493 99607.404
0.48452037 -0.05 0.056059413 99602.02
0.47825076 -0.05 0.05637223 99596.523
0.47198069 -0.05 0.056675806 99590.934
0.46571018 -0.05 0.056969891 99585.346
0.45943922 -0.05 0.05725427 99579.73
0.45316781 -0.05 0.05752878 99574.077
0.44689598 -0.05 0.057793239 99568.329
0.44062371 -0.05 0.05804742 99562.501
0.43435103 -0.05 0.058291084 99556.669
0.42807795 -0.05 0.058524018 99550.873
0.42180446 -0.05 0.058746027 99544.993
0.41553059 -0.05 0.05895686 99539.072
0.40925635 -0.05 0.059156238 99533.121
0.40298175 -0.05 0.059343938 99527.113
0.3967068 -0.05 0.059519675 99521.082
0.39043152 -0.05 0.059683139 99515.061
0.38415593 -0.05 0.059834115 99508.966
0.37788005 -0.05 0.059972363 99502.846
0.37160388 -0.05 0.060097485 99496.792
0.36532747 -0.05 0.060209159 99490.71
0.35905083 -0.05 0.060307145 99484.609
0.35277398 -0.05 0.060391108 99478.532
0.34649695 -0.05 0.060460689 99472.442
0.34021978 -0.05 0.060515502 99466.402
0.33394251 -0.05 0.060555219 99460.283
0.32766515 -0.05 0.060579447 99454.268
0.32138775 -0.05 0.060587764 99448.318
0.31511034 -0.05 0.060579779 99442.443
0.30883299 -0.05 0.060555079 99436.223
0.30255571 -0.05 0.06051323 99429.729
