# wallShearStress  FACE_DATA 448
# x y z  wallShearStress_x wallShearStress_y wallShearStress_z
0.29773926 -0.05 -0.059544879 -6.7263104 4.7587362e-17 -0.042240173
0.29210216 -0.05 -0.059585987 -7.0160717 1.197726e-18 -0.024853077
0.28654614 -0.05 -0.059611935 -7.2912386 -1.4091092e-17 -0.0066748197
0.28107004 -0.05 -0.059622943 -7.5684902 4.928098e-18 0.013971123
0.27567276 -0.05 -0.059619291 -7.8480344 5.9466699e-18 0.036595137
0.27035321 -0.05 -0.059601286 -8.1289791 -9.6207949e-18 0.059655102
0.26511029 -0.05 -0.059569214 -8.4098282 4.6886468e-17 0.083980937
0.25994294 -0.05 -0.059523329 -8.6910015 -4.4530101e-17 0.11033285
0.25485014 -0.05 -0.059463933 -8.9731775 -3.8740435e-17 0.13891513
0.24983081 -0.05 -0.05939128 -9.2564073 1.114279e-16 0.16972075
0.24488398 -0.05 -0.059305565 -9.5390747 -3.4602876e-18 0.20218707
0.24000861 -0.05 -0.059207077 -9.8205511 -7.3303247e-17 0.23641497
0.23520372 -0.05 -0.059096069 -10.098478 1.6500592e-17 0.27225921
0.23046835 -0.05 -0.058972813 -10.369767 -1.0662023e-16 0.3098425
0.22580151 -0.05 -0.058837564 -10.633951 1.3821304e-16 0.34933077
0.22120227 -0.05 -0.058690502 -10.889989 -1.7759769e-16 0.3906457
0.21666969 -0.05 -0.0585319 -11.138125 -4.1584122e-17 0.43357166
0.21220286 -0.05 -0.058361994 -11.382828 1.1768814e-16 0.47864878
0.20780086 -0.05 -0.058180921 -11.627346 -2.5751065e-16 0.52541092
0.20346281 -0.05 -0.05798896 -11.876254 -4.3209096e-17 0.57374524
0.19918782 -0.05 -0.057786331 -12.125366 1.923893e-17 0.62352948
0.19497502 -0.05 -0.057573275 -12.368158 1.7870488e-16 0.67449124
0.19082355 -0.05 -0.057350006 -12.594939 9.4195447e-17 0.72709237
0.18673259 -0.05 -0.057116616 -12.798406 -2.4760737e-16 0.78153469
0.18270129 -0.05 -0.056873365 -12.978555 5.2385078e-17 0.83891188
0.17872884 -0.05 -0.056620454 -13.151185 -1.0889011e-16 0.90073642
0.17481442 -0.05 -0.056358051 -13.337227 -2.945812e-16 0.96692639
0.17095725 -0.05 -0.056086374 -13.552417 -1.8990066e-17 1.0378373
0.16715654 -0.05 -0.055805592 -13.783747 2.1692557e-16 1.1121953
0.16341152 -0.05 -0.05551585 -14.030335 2.8483314e-16 1.1905619
0.15972145 -0.05 -0.055217286 -14.292935 2.4438516e-16 1.2723457
0.15608556 -0.05 -0.054910135 -14.580573 -1.5080062e-16 1.3581498
0.15250311 -0.05 -0.054594515 -14.900515 -3.1547487e-16 1.4489531
0.1489734 -0.05 -0.054270578 -15.248933 7.8907983e-17 1.5449935
0.14549569 -0.05 -0.053938481 -15.614643 2.9600946e-16 1.646049
0.1420693 -0.05 -0.053598323 -15.986458 4.0623602e-17 1.7512725
0.13869352 -0.05 -0.053250271 -16.357886 7.1252304e-17 1.8603716
0.13536768 -0.05 -0.052894446 -16.724711 2.6020795e-16 1.9732761
0.1320911 -0.05 -0.052531027 -17.084554 3.9502244e-16 2.0895446
0.12886312 -0.05 -0.052160126 -17.435939 -3.9638784e-16 2.2094975
0.1256831 -0.05 -0.051781779 -17.776572 -1.7600085e-16 2.3322409
0.12255041 -0.05 -0.051396175 -18.106983 5.0774343e-16 2.4586111
0.11946438 -0.05 -0.05100344 -18.426867 -8.4047855e-16 2.5888568
0.11642443 -0.05 -0.050603597 -18.734638 3.6106591e-16 2.7222517
0.11342995 -0.05 -0.050196723 -19.029976 8.1273794e-16 2.8583957
0.11048034 -0.05 -0.049782958 -19.313258 1.0121576e-16 2.9974853
0.10757502 -0.05 -0.049362338 -19.583179 8.8416526e-16 3.1393815
0.1047134 -0.05 -0.048934961 -19.840092 -2.0773101e-16 3.2836771
0.10189491 -0.05 -0.048500989 -20.085803 -9.1379501e-16 3.4314756
0.099118997 -0.05 -0.048060367 -20.318636 -8.2063689e-17 3.5821805
0.09638513 -0.05 -0.047613154 -20.539157 -3.6815877e-17 3.7352101
0.093692759 -0.05 -0.047159497 -20.748556 -7.7243547e-18 3.8917339
0.091041378 -0.05 -0.046699316 -20.944395 3.1822797e-17 4.0509292
0.088430467 -0.05 -0.046232681 -21.127655 3.6982403e-16 4.2123698
0.085859515 -0.05 -0.045759659 -21.298265 -2.2526807e-16 4.3766156
0.083328031 -0.05 -0.045280281 -21.457135 2.2534625e-16 4.5435051
0.080835525 -0.05 -0.044794592 -21.60422 7.1672784e-17 4.7137444
0.078381549 -0.05 -0.04430249 -21.738315 5.1554553e-17 4.8861826
0.075965645 -0.05 -0.043803969 -21.859468 1.6707611e-16 5.0608695
0.073587348 -0.05 -0.043299105 -21.966887 6.4302957e-16 5.2380161
0.071246213 -0.05 -0.042787918 -22.059803 6.2870056e-16 5.4181424
0.068941832 -0.05 -0.042270297 -22.136316 3.5288056e-16 5.6007669
0.066673797 -0.05 -0.041746206 -22.196869 6.2862711e-16 5.785036
0.064441695 -0.05 -0.04121564 -22.242652 6.0767515e-16 5.9720952
0.062245148 -0.05 -0.04067851 -22.270677 6.50379e-17 6.1613842
0.060083788 -0.05 -0.040134733 -22.281256 1.9118013e-16 6.3525958
0.057957251 -0.05 -0.039584249 -22.274232 2.7363088e-16 6.5457927
0.055865195 -0.05 -0.039026956 -22.249216 -1.9084751e-16 6.740656
0.053807271 -0.05 -0.03846282 -22.207058 -7.6056084e-16 6.9381129
0.051783185 -0.05 -0.037891656 -22.144766 -2.3698669e-16 7.1370096
0.049792649 -0.05 -0.037313312 -22.06326 -7.3194907e-17 7.3371833
0.047835357 -0.05 -0.036727723 -21.96206 5.2176861e-16 7.5394982
0.045911056 -0.05 -0.036134707 -21.841159 -5.8812094e-16 7.7437208
0.044019507 -0.05 -0.035534078 -21.699384 4.0184556e-17 7.9497122
0.04216052 -0.05 -0.034925562 -21.532984 6.2453247e-16 8.1561826
0.040333891 -0.05 -0.034308964 -21.342851 5.658042e-16 8.3627835
0.038539425 -0.05 -0.033684136 -21.133769 -1.1162499e-15 8.5706873
0.036776986 -0.05 -0.033050791 -20.904127 -1.7477015e-16 8.7771006
0.035046472 -0.05 -0.032408623 -20.647099 -3.6685435e-16 8.9832767
0.033347806 -0.05 -0.031757318 -20.364991 4.6754907e-16 9.1871844
0.031680935 -0.05 -0.031096559 -20.055556 3.2859299e-16 9.39006
0.030045852 -0.05 -0.030425995 -19.718022 8.015651e-16 9.5895
0.028442611 -0.05 -0.029745193 -19.3504 -6.3705633e-16 9.7846154
0.02687128 -0.05 -0.029053771 -18.95344 1.9618693e-16 9.9748884
0.025332007 -0.05 -0.028351244 -18.524989 4.939183e-16 10.15846
0.023824998 -0.05 -0.027637093 -18.064554 5.4987315e-16 10.333878
0.022350514 -0.05 -0.026910809 -17.57091 -6.4808044e-16 10.499494
0.020908935 -0.05 -0.026171761 -17.042514 6.2213737e-16 10.652401
0.019500666 -0.05 -0.025419377 -16.479329 4.5828802e-16 10.791767
0.018126278 -0.05 -0.024652929 -15.878552 9.449618e-16 10.912473
0.016786428 -0.05 -0.023871655 -15.239629 5.7559531e-16 11.012083
0.015481866 -0.05 -0.02307481 -14.562053 1.2667885e-16 11.086004
0.014213533 -0.05 -0.022261541 -13.845213 -6.3613747e-16 11.130274
0.012982548 -0.05 -0.021430982 -13.089739 7.2556365e-16 11.139683
0.011790228 -0.05 -0.020582234 -12.295612 3.6847317e-18 11.109951
0.010638118 -0.05 -0.01971429 -11.461665 3.8038224e-16 11.029222
0.0095279582 -0.05 -0.018826085 -10.588141 -8.8344658e-17 10.888374
0.0084618068 -0.05 -0.017916749 -9.6805191 -3.0959364e-16 10.685203
0.0074421468 -0.05 -0.016985423 -8.7463014 -1.8295798e-16 10.410545
0.0064717016 -0.05 -0.016031 -7.7883975 5.4762131e-16 10.052103
0.0055535231 -0.05 -0.015052727 -6.8140291 -1.2162102e-16 9.6017671
0.0046913422 -0.05 -0.014050405 -5.8385918 -2.7018223e-16 9.0393391
0.0038890259 -0.05 -0.013023627 -4.8784116 -5.6792207e-16 8.3558193
0.003150663 -0.05 -0.011972532 -3.9527505 1.2430007e-16 7.5592817
0.0024810041 -0.05 -0.010898397 -3.0841649 7.7772181e-17 6.6538564
0.0018846365 -0.05 -0.0098026548 -2.2914775 -5.9156883e-17 5.650289
0.0013659234 -0.05 -0.0086877624 -1.5799733 -1.9350884e-16 4.5693408
0.00092882832 -0.05 -0.0075577215 -1.0171027 1.9484998e-17 3.4570212
0.00057647156 -0.05 -0.0064169032 -0.59847648 8.5370724e-17 2.3448515
0.00031065473 -0.05 -0.0052705967 -0.34803124 -7.6101864e-17 1.3389372
0.00013151723 -0.05 -0.0041248585 -0.20397903 1.8117696e-16 0.63680442
3.7618632e-05 -0.05 -0.0029857677 -0.15573156 -7.9191871e-18 0.042638857
0.99686307 -0.05 0.0067762593 0.096217074 -4.2424792e-16 -0.19424325
0.99065887 -0.05 0.0058203322 -0.0020404529 4.2220123e-16 5.8943631e-06
0.9844536 -0.05 0.0048713824 0.006015916 2.7880099e-16 0.00082870043
0.97824727 -0.05 0.0039293832 -0.0023882483 2.0927803e-16 -0.00027173637
0.9720399 -0.05 0.0029942287 0.0027306447 3.0593774e-16 0.00022710899
0.96583154 -0.05 0.0020657606 0.00057360587 2.1047684e-16 8.9924848e-07
0.95962217 -0.05 0.0011439962 0.0018777946 4.6604988e-16 0.00019209633
0.95341182 -0.05 0.00022887212 0.0014306515 -1.8989501e-16 0.00010434597
0.94720052 -0.05 -0.00067976616 0.00179706 -7.1935725e-16 0.00017392343
0.94098828 -0.05 -0.001582003 0.0017831729 3.0619134e-16 0.00014779612
0.93477512 -0.05 -0.0024778433 0.0019441954 4.1885516e-17 0.0001769377
0.92856106 -0.05 -0.0033673468 0.0020163786 4.819259e-16 0.00016729302
0.92234609 -0.05 -0.0042505902 0.0021258015 5.4520733e-17 0.00018852809
0.91613024 -0.05 -0.0051276082 0.002205019 -7.388847e-17 0.00018109609
0.90991354 -0.05 -0.0059985517 0.0023159351 2.5401091e-17 0.00019982646
0.90369599 -0.05 -0.0068634181 0.0023980754 -4.3657062e-16 0.00018766249
0.89747762 -0.05 -0.0077222388 0.0025332842 3.4409267e-16 0.00021501743
0.89125842 -0.05 -0.0085751496 0.0026014275 9.0322255e-17 0.00021298584
0.88503841 -0.05 -0.0094221639 0.0027018625 4.586076e-16 0.00023211603
0.8788176 -0.05 -0.010263225 0.0028052543 8.3342619e-16 0.00023023984
0.872596 -0.05 -0.011098471 0.002916698 3.2203688e-16 0.00024946802
0.86637363 -0.05 -0.011927969 0.0030249361 -8.2194608e-17 0.00024968652
0.86015051 -0.05 -0.012751691 0.0031510087 -7.1542186e-16 0.00026991224
0.85392662 -0.05 -0.013569722 0.0032813887 1.438799e-16 0.00028054232
0.84770199 -0.05 -0.014382126 0.0034442491 9.0855697e-16 0.0002865176
0.84147664 -0.05 -0.015188889 0.0035597078 -7.3548037e-16 0.00028454494
0.83525056 -0.05 -0.015989973 0.0037138047 5.395817e-16 0.00029479109
0.82902377 -0.05 -0.016785556 0.0038244193 -5.087813e-16 0.00030221494
0.82279627 -0.05 -0.017575596 0.0039725158 2.8421269e-17 0.00031456631
0.81656807 -0.05 -0.018360047 0.0041022365 8.2704535e-16 0.00031296661
0.81033917 -0.05 -0.019138989 0.004379363 -5.2358621e-16 0.00031374936
0.80410959 -0.05 -0.019912431 0.0047381615 7.4746474e-16 0.0003086863
0.79787933 -0.05 -0.020680404 0.0051720311 -5.8557364e-16 0.00026325655
0.79164839 -0.05 -0.021442864 0.0079341485 7.2428719e-16 0.00038976039
0.78541681 -0.05 -0.022199897 0.0085261219 1.8153713e-16 0.00068482796
0.77918455 -0.05 -0.022951467 0.0084670716 -2.7254743e-17 0.00070723719
0.77295163 -0.05 -0.023697543 0.008546632 4.6453648e-16 0.00072122716
0.76671807 -0.05 -0.024438187 0.007673556 4.9525643e-16 0.00058392796
0.76048385 -0.05 -0.025173384 0.0081551892 -2.7491251e-16 0.00061483443
0.75424899 -0.05 -0.025903122 0.0078921321 7.1811841e-16 0.00058840784
0.74801351 -0.05 -0.026627377 0.0073939866 6.9395934e-16 0.00052507702
0.74177738 -0.05 -0.027346129 0.0066284147 -5.4903927e-16 0.00042979004
0.73554062 -0.05 -0.028059367 0.0055409732 -3.8449741e-16 0.00028907538
0.72930323 -0.05 -0.028767054 0.0039849203 -4.0302358e-16 9.366015e-05
0.72306521 -0.05 -0.029469223 0.001944118 -3.186704e-16 -0.00013857679
0.71682658 -0.05 -0.030165904 -0.00064425307 -3.1176582e-16 -0.00041113667
0.71058732 -0.05 -0.030856922 -0.0034831264 5.2082986e-16 -0.00067662488
0.70434744 -0.05 -0.031542328 -0.0060275129 1.5247417e-16 -0.00096588335
0.69810694 -0.05 -0.032222089 -0.009051923 8.4112807e-16 -0.0012945871
0.69186582 -0.05 -0.03289611 -0.012565502 -4.4354542e-16 -0.0016664442
0.68562408 -0.05 -0.033564448 -0.01668399 -2.5211405e-16 -0.0020955059
0.67938174 -0.05 -0.034227006 -0.021393551 5.4558748e-17 -0.0025756099
0.67313878 -0.05 -0.034883792 -0.026784914 3.7843741e-16 -0.0031137589
0.6668952 -0.05 -0.035534692 -0.032874446 4.3842188e-16 -0.0037109364
0.66065101 -0.05 -0.036179604 -0.039738508 2.6585899e-16 -0.004369115
0.65440621 -0.05 -0.036818613 -0.047636464 -2.2736174e-16 -0.0051047703
0.6481608 -0.05 -0.037451634 -0.056750228 6.7887158e-17 -0.0059360538
0.64191476 -0.05 -0.038078499 -0.067111705 6.7112019e-16 -0.0068658311
0.63566811 -0.05 -0.038699176 -0.078779045 -5.4311269e-16 -0.0078999932
0.62942085 -0.05 -0.039313667 -0.091854184 -6.8980422e-16 -0.0090373046
0.62317296 -0.05 -0.039921835 -0.1064053 -1.9231384e-16 -0.010285706
0.61692446 -0.05 -0.040523595 -0.12241015 -1.082429e-16 -0.011635341
0.61067535 -0.05 -0.041118944 -0.13999907 -2.4120103e-17 -0.013094482
0.60442561 -0.05 -0.041707737 -0.15911814 2.4524367e-16 -0.014655125
0.59817526 -0.05 -0.042289903 -0.17999428 -4.2955685e-17 -0.016325492
0.59192428 -0.05 -0.042865357 -0.20272174 -1.8489723e-16 -0.018102207
0.58567267 -0.05 -0.04343401 -0.22765085 -1.2814425e-16 -0.020085945
0.57942045 -0.05 -0.043995743 -0.25646457 -1.9053417e-16 -0.022226212
0.57316758 -0.05 -0.044550413 -0.28748396 7.4720979e-17 -0.024542853
0.5669141 -0.05 -0.045097988 -0.32097537 -1.1994291e-16 -0.026981811
0.56066 -0.05 -0.045638346 -0.35707646 -4.1730325e-16 -0.029559412
0.55440525 -0.05 -0.046171324 -0.39561303 -3.7890619e-16 -0.032256047
0.54814988 -0.05 -0.046696852 -0.43691434 1.3612143e-16 -0.035077947
0.54189387 -0.05 -0.047214765 -0.48107642 -7.8637616e-17 -0.03800826
0.53563723 -0.05 -0.047724927 -0.5282468 -1.9213833e-16 -0.041060769
0.52937994 -0.05 -0.048227265 -0.57860327 6.4499989e-17 -0.044234028
0.52312203 -0.05 -0.048721607 -0.63217975 -1.9669179e-17 -0.04751961
0.51686348 -0.05 -0.049207812 -0.68912644 -3.1294952e-16 -0.050893142
0.51060428 -0.05 -0.049685712 -0.74978107 9.9352833e-17 -0.054369179
0.50434445 -0.05 -0.050155168 -0.81427356 4.6142026e-16 -0.057961673
0.49808398 -0.05 -0.050616057 -0.88310441 -2.8049691e-16 -0.061676745
0.49182287 -0.05 -0.051068182 -0.95583034 1.5273529e-16 -0.065427823
0.48556112 -0.05 -0.05151134 -1.0327954 -2.0265186e-16 -0.069229195
0.47929874 -0.05 -0.051945405 -1.1143736 1.2428594e-16 -0.073111086
0.47303573 -0.05 -0.052370239 -1.2029449 2.3660851e-18 -0.077367871
0.46677208 -0.05 -0.052785593 -1.3057744 -1.1446639e-16 -0.082448153
0.46050779 -0.05 -0.05319125 -1.4236959 1.2635002e-16 -0.087802878
0.45424287 -0.05 -0.05358705 -1.5458557 2.3801589e-16 -0.092718857
0.44797732 -0.05 -0.05397281 -1.6722946 -8.4705653e-17 -0.09750409
0.44171115 -0.05 -0.054348302 -1.8036874 -2.4881018e-16 -0.10166689
0.43544436 -0.05 -0.054713286 -1.9403439 -1.8128557e-16 -0.1053785
0.42917695 -0.05 -0.055067551 -2.0832722 8.9927441e-17 -0.1094083
0.42290894 -0.05 -0.055410899 -2.2329829 -2.2056909e-16 -0.11348523
0.41664032 -0.05 -0.055743081 -2.3891209 1.0428506e-17 -0.11724194
0.41037111 -0.05 -0.056063819 -2.5519991 -2.125674e-16 -0.12064671
0.40410132 -0.05 -0.056372887 -2.722225 3.4566908e-17 -0.12367911
0.39783095 -0.05 -0.056670001 -2.8998427 1.7663257e-16 -0.12628489
0.39156 -0.05 -0.05695485 -3.083879 -2.7325104e-17 -0.12834966
0.38528851 -0.05 -0.05722722 -3.2751582 3.3091878e-16 -0.12984073
0.37901647 -0.05 -0.057486869 -3.4744775 1.1933259e-16 -0.130664
0.3727439 -0.05 -0.057733401 -3.6813896 -8.2272549e-18 -0.13074189
0.36647083 -0.05 -0.057966493 -3.895012 3.1956183e-17 -0.13003913
0.36019725 -0.05 -0.058185904 -4.1163404 2.8035749e-17 -0.12841168
0.3539232 -0.05 -0.058391297 -4.3458477 -3.1715669e-17 -0.12578799
0.34764871 -0.05 -0.058582315 -4.5835367 8.8540094e-17 -0.12211263
0.34137377 -0.05 -0.058758571 -4.8284217 3.1946253e-17 -0.1172286
0.33509843 -0.05 -0.058919735 -5.0804844 -4.2353883e-17 -0.11105524
0.32882272 -0.05 -0.059065415 -5.340103 2.6403685e-17 -0.10336036
0.32254666 -0.05 -0.059195187 -5.6079965 -2.2843025e-17 -0.094220103
0.31627027 -0.05 -0.059308662 -5.8828748 -1.5632025e-17 -0.08341007
0.30999361 -0.05 -0.059405424 -6.1657765 9.0870928e-17 -0.070986231
0.30371671 -0.05 -0.059485037 -6.4426077 -1.4438589e-17 -0.056803756
0.29657822 -0.05 0.060457408 -7.0872325 1.5258781e-17 -0.075723802
0.29094139 -0.05 0.06038944 -6.9190814 -4.9711847e-17 -0.091722287
0.2853859 -0.05 0.060307882 -6.77641 4.3303546e-17 -0.10729331
0.27991062 -0.05 0.060212935 -6.6382696 2.2303941e-17 -0.12266767
0.27451442 -0.05 0.060104856 -6.5076587 -6.5064589e-17 -0.1377108
0.26919621 -0.05 0.05998393 -6.3836636 1.0124142e-16 -0.15241365
0.26395489 -0.05 0.059850422 -6.2663103 1.3718801e-16 -0.16674535
0.25878941 -0.05 0.059704567 -6.1555498 1.0315813e-17 -0.18081696
0.2536987 -0.05 0.059546643 -6.0515695 -1.1715086e-16 -0.19457831
0.24868173 -0.05 0.059376889 -5.9541862 -2.2524375e-17 -0.20828111
0.24373747 -0.05 0.059195476 -5.8621067 -1.5338512e-16 -0.22173426
0.23886492 -0.05 0.059002677 -5.7749249 -3.731842e-16 -0.23497768
0.23406308 -0.05 0.058798723 -5.6915024 -3.1042332e-16 -0.24803316
0.22933097 -0.05 0.058583868 -5.6114079 2.6029878e-16 -0.26100899
0.22466763 -0.05 0.058358349 -5.535379 -3.4163895e-17 -0.27399101
0.2200721 -0.05 0.058122327 -5.4628677 3.2693298e-17 -0.2868929
0.21554344 -0.05 0.057876058 -5.394075 -1.3258673e-16 -0.29967902
0.21108073 -0.05 0.057619756 -5.3291216 -1.2290826e-16 -0.31257358
0.20668306 -0.05 0.057353547 -5.2671503 -6.6256505e-17 -0.32538193
0.20234953 -0.05 0.057077688 -5.2084391 -3.3582204e-16 -0.33815469
0.19807926 -0.05 0.056792383 -5.1530059 4.0200579e-16 -0.35097359
0.19387137 -0.05 0.056497856 -5.100838 3.7998979e-16 -0.36382087
0.18972501 -0.05 0.056194305 -5.0521705 9.134969e-17 -0.37690507
0.18563931 -0.05 0.055881804 -5.0060777 5.4106887e-16 -0.39003972
0.18161347 -0.05 0.055560599 -4.962942 -2.0670911e-16 -0.40323294
0.17764666 -0.05 0.055230876 -4.9230352 -9.5245293e-17 -0.4166993
0.17373806 -0.05 0.054892785 -4.8855176 -2.661398e-16 -0.43020316
0.16988687 -0.05 0.054546529 -4.8508935 -1.6328137e-16 -0.44397219
0.16609231 -0.05 0.054192262 -4.8187184 1.5838063e-16 -0.45793937
0.1623536 -0.05 0.053830114 -4.7890939 -4.828189e-17 -0.47222868
0.15866999 -0.05 0.05346021 -4.7615822 -2.3798601e-16 -0.48665786
0.15504072 -0.05 0.053082767 -4.7366805 -7.5272469e-17 -0.50140336
0.15146505 -0.05 0.052697893 -4.7140463 -1.7600267e-17 -0.5164809
0.14794226 -0.05 0.052305722 -4.6935687 -1.694256e-16 -0.53180709
0.14447163 -0.05 0.051906399 -4.675809 -2.4220179e-16 -0.54764501
0.14105246 -0.05 0.05150001 -4.6602386 -1.4315237e-16 -0.56382081
0.13768405 -0.05 0.051086707 -4.6469517 1.797723e-16 -0.58038831
0.13436572 -0.05 0.0506666 -4.6358922 1.4649166e-16 -0.59735479
0.13109679 -0.05 0.050239851 -4.6271802 4.7397216e-16 -0.6147698
0.12787659 -0.05 0.049806564 -4.6206266 3.1871791e-16 -0.63285882
0.12470449 -0.05 0.049366761 -4.6149585 1.3706743e-16 -0.65120489
0.12157983 -0.05 0.048920616 -4.6111285 1.2106911e-16 -0.66999659
0.11850199 -0.05 0.048468245 -4.6098191 -4.5161646e-16 -0.68965881
0.11547034 -0.05 0.048009658 -4.6101055 -4.8805921e-16 -0.7099877
0.1124843 -0.05 0.047544923 -4.6119602 5.7372904e-17 -0.73092355
0.10954325 -0.05 0.047074165 -4.6156773 8.5026865e-17 -0.75266065
0.1066466 -0.05 0.046597411 -4.6209851 4.8632443e-16 -0.77510803
0.10379379 -0.05 0.046114746 -4.6272539 2.9086527e-17 -0.79802068
0.10098422 -0.05 0.045626321 -4.6353611 -3.2641379e-16 -0.82191972
0.098217351 -0.05 0.045132073 -4.6441251 -8.6851819e-17 -0.84645657
0.095492651 -0.05 0.044632049 -4.6537851 -5.1960595e-16 -0.87167765
0.092809562 -0.05 0.044126383 -4.6662177 1.4546259e-16 -0.89842993
0.09016758 -0.05 0.043614989 -4.680247 7.6785111e-16 -0.92620472
0.087566186 -0.05 0.043097924 -4.6946642 7.7189731e-17 -0.95463033
0.085004869 -0.05 0.042575247 -4.7101259 -1.5181395e-16 -0.98407946
0.082483133 -0.05 0.042046979 -4.7255774 3.897712e-16 -1.0141503
0.080000491 -0.05 0.041513155 -4.7428404 3.8206063e-16 -1.0455495
0.077556496 -0.05 0.040973664 -4.7611915 6.0160117e-16 -1.0778739
0.075150691 -0.05 0.040428493 -4.781538 5.2921804e-16 -1.1113348
0.072782606 -0.05 0.039877706 -4.8038661 -4.522273e-16 -1.1462197
0.070451799 -0.05 0.039321318 -4.8273428 -3.1805592e-16 -1.1827401
0.068157866 -0.05 0.03875921 -4.8502976 -2.8861155e-16 -1.2203548
0.065900395 -0.05 0.038191333 -4.8729923 7.3636846e-16 -1.2590914
0.063678976 -0.05 0.037617679 -4.8971374 -2.792141e-17 -1.2998725
0.061493234 -0.05 0.037038151 -4.9235512 2.3880425e-16 -1.3430613
0.0593428 -0.05 0.036452657 -4.9520083 9.7350058e-17 -1.3885484
0.057227311 -0.05 0.03586113 -4.9816648 -1.5955661e-16 -1.4359555
0.05514643 -0.05 0.035263463 -5.0111958 -1.6770244e-16 -1.4848411
0.053099806 -0.05 0.034659617 -5.0405461 8.0892347e-16 -1.5355091
0.051087151 -0.05 0.034049396 -5.0699985 -5.8411632e-16 -1.5882745
0.049108177 -0.05 0.033432647 -5.0987783 3.1387801e-16 -1.6432405
0.047162581 -0.05 0.032809298 -5.1291078 -1.1061825e-16 -1.7017256
0.045250114 -0.05 0.03217916 -5.1587433 -4.038458e-16 -1.762584
0.043370541 -0.05 0.031542046 -5.1862922 -4.0283972e-16 -1.8256153
0.041523675 -0.05 0.030897675 -5.2122403 2.3554903e-16 -1.8907299
0.039709319 -0.05 0.030245851 -5.2378185 4.223548e-16 -1.9594368
0.037927278 -0.05 0.029586419 -5.2671495 7.7671325e-16 -2.0340717
0.036177423 -0.05 0.028919093 -5.2988631 1.0658574e-15 -2.1136342
0.034459658 -0.05 0.028243563 -5.3284404 5.4683075e-16 -2.1963108
0.032773911 -0.05 0.027559513 -5.3543858 -5.9407702e-16 -2.2809426
0.031120137 -0.05 0.026866627 -5.37355 5.3673331e-16 -2.3676342
0.029498334 -0.05 0.026164552 -5.3873976 -1.1815242e-16 -2.4602637
0.027908566 -0.05 0.025452857 -5.3989848 -2.0131116e-16 -2.5593633
0.026350907 -0.05 0.024731163 -5.4009983 -9.5254033e-17 -2.6588256
0.024825514 -0.05 0.023998984 -5.3868481 8.9228927e-16 -2.7558329
0.023332605 -0.05 0.023255809 -5.3661502 2.028502e-16 -2.8544077
0.02187245 -0.05 0.022501132 -5.3481592 -1.0450335e-16 -2.9615858
0.02044544 -0.05 0.02173433 -5.3290928 -7.0783971e-16 -3.0739885
0.019051992 -0.05 0.020954839 -5.2805044 -1.1234043e-15 -3.175605
0.01769269 -0.05 0.020161942 -5.1726303 5.1391057e-16 -3.2534335
0.016368208 -0.05 0.019354891 -4.9989869 -3.8132207e-16 -3.3084569
0.015079308 -0.05 0.018532953 -4.782888 8.8270191e-16 -3.3632279
0.013826947 -0.05 0.017695297 -4.5575086 -1.4898128e-16 -3.45154
0.012612264 -0.05 0.016841077 -4.3745919 5.2438148e-16 -3.615612
0.011436589 -0.05 0.015969418 -4.2302848 3.9262157e-16 -3.8723531
0.010301487 -0.05 0.015079345 -4.1137493 -3.4136282e-16 -4.2275131
0.0092087204 -0.05 0.014169826 -4.0334582 4.2110457e-16 -4.6605478
0.0081603626 -0.05 0.013240031 -4.0397389 -7.0038114e-17 -5.1600237
0.007158913 -0.05 0.012289152 -4.1314194 -1.4332067e-16 -5.7071159
0.0062071161 -0.05 0.011316131 -4.1795211 -7.429045e-17 -6.1953784
0.0053080373 -0.05 0.010320275 -4.1023308 -7.1314769e-17 -6.5465669
0.0044654112 -0.05 0.0093014598 -3.8839442 2.9046823e-16 -6.7629921
0.0036831115 -0.05 0.00825935 -3.5406435 7.3872322e-17 -6.79527
0.0029652238 -0.05 0.0071941659 -3.0894824 -3.817086e-16 -6.6213209
0.0023164729 -0.05 0.0061072756 -2.5691221 4.3473625e-16 -6.2564243
0.0017414178 -0.05 0.0050001993 -2.0258624 -6.4189802e-17 -5.7177695
0.0012443732 -0.05 0.0038754794 -1.4931093 -1.0561958e-16 -4.9882656
0.00082922423 -0.05 0.002737193 -1.0073515 2.5320394e-16 -4.1244305
0.00049900637 -0.05 0.0015897709 -0.62912452 -2.5230105e-16 -3.1658011
0.00025541843 -0.05 0.00043853574 -0.38112002 -3.0028937e-17 -2.1520149
9.8482612e-05 -0.05 -0.00071045401 -0.22982104 -3.8277861e-17 -1.204935
2.6641104e-05 -0.05 -0.0018511484 -0.15723886 -3.741831e-18 -0.53886469
0.99685437 -0.05 0.0076755697 -62.050503 1.662019e-15 8.0888318
0.99063284 -0.05 0.0085112769 -59.607919 3.9475375e-17 7.9915749
0.98441037 -0.05 0.0093399873 -60.340359 1.2550144e-15 7.9633934
0.97818696 -0.05 0.010161728 -59.666102 -6.3318901e-16 7.8275198
0.97196267 -0.05 0.010976606 -59.255388 -2.0327357e-16 7.7066863
0.9657375 -0.05 0.011784778 -58.748984 -1.7055229e-15 7.5778472
0.95951146 -0.05 0.012586228 -58.252548 3.6032268e-16 7.4502132
0.95328457 -0.05 0.013381022 -57.740351 -4.2162962e-16 7.323693
0.94705686 -0.05 0.014169311 -57.222499 6.6256692e-16 7.1979646
0.94082833 -0.05 0.014951183 -56.698963 -4.0075194e-16 7.0734181
0.93459899 -0.05 0.015726641 -56.17008 -3.3068471e-16 6.9491535
0.92836888 -0.05 0.016495746 -55.636855 6.4703008e-16 6.8268023
0.92213799 -0.05 0.017258575 -55.098078 -1.1337344e-15 6.7048775
0.91590634 -0.05 0.018015163 -54.554186 -9.6739753e-16 6.5846538
0.90967395 -0.05 0.01876566 -54.005451 -2.5703382e-16 6.4654364
0.90344083 -0.05 0.019510066 -53.451411 6.3490585e-16 6.3466459
0.897207 -0.05 0.020248411 -52.89179 1.3687404e-15 6.2292833
0.89097246 -0.05 0.02098083 -52.329578 5.1674999e-16 6.1130708
0.88473723 -0.05 0.02170734 -51.765426 -4.3330028e-17 5.9974805
0.87850131 -0.05 0.022427881 -51.20058 2.7521965e-16 5.8832668
0.87226472 -0.05 0.023142592 -50.636823 -4.5701235e-16 5.7714049
0.86602747 -0.05 0.023851542 -50.075025 1.2667943e-15 5.6604281
0.85978956 -0.05 0.024554702 -49.514143 2.4356103e-16 5.5512605
0.85355102 -0.05 0.025252159 -48.954382 -1.434336e-16 5.4436656
0.84731185 -0.05 0.025943975 -48.394916 1.280191e-15 5.3373944
0.84107205 -0.05 0.026630136 -47.835428 -1.2940021e-15 5.2320027
0.83483162 -0.05 0.027310607 -47.273742 -1.9810024e-16 5.1279515
0.8285906 -0.05 0.027985562 -46.710437 2.6330974e-16 5.0255591
0.82234898 -0.05 0.028654963 -46.143134 5.9741583e-16 4.9227362
0.81610677 -0.05 0.029318762 -45.572331 -1.2146582e-15 4.8215238
0.80986397 -0.05 0.029977039 -44.998981 2.1389917e-15 4.7207106
0.80362059 -0.05 0.030629804 -44.425748 -1.6837777e-15 4.6213313
0.79737664 -0.05 0.031277088 -43.854903 -2.0515718e-16 4.5228633
0.79113212 -0.05 0.031918847 -43.288934 1.3168649e-15 4.4260735
0.78488705 -0.05 0.032555167 -42.729219 -1.2819435e-15 4.3311817
0.77864141 -0.05 0.033186013 -42.175431 -1.9728058e-17 4.2373352
0.77239522 -0.05 0.033811354 -41.626808 4.0305457e-16 4.1454964
0.7661485 -0.05 0.034431249 -41.083587 -1.1426852e-15 4.0550735
0.75990122 -0.05 0.035045686 -40.543343 9.9650212e-18 3.9659688
0.75365342 -0.05 0.035654655 -40.002975 1.4968569e-16 3.8778295
0.74740508 -0.05 0.036258126 -39.458365 -8.2887563e-16 3.7902163
0.74115621 -0.05 0.036856086 -38.909303 -2.2641733e-16 3.702994
0.73490682 -0.05 0.037448519 -38.356271 4.2376473e-16 3.6161805
0.7286569 -0.05 0.03803539 -37.802816 3.7758569e-16 3.5300808
0.72240648 -0.05 0.038616733 -37.253594 -1.8516607e-16 3.4454012
0.71615553 -0.05 0.039192576 -36.712701 -8.8059865e-17 3.3619016
0.70990407 -0.05 0.039762746 -36.179588 6.606861e-16 3.2795605
0.70365209 -0.05 0.040327292 -35.655384 -2.3979002e-16 3.1996018
0.69739961 -0.05 0.040886182 -35.137393 3.5471448e-16 3.1202734
0.69114661 -0.05 0.041439322 -34.622793 2.2924614e-17 3.0428443
0.68489312 -0.05 0.041986768 -34.106636 3.717217e-16 2.9658962
0.67863913 -0.05 0.042528422 -33.583561 -2.6759888e-16 2.8892072
0.67238463 -0.05 0.043064296 -33.052235 7.5715033e-16 2.812521
0.66612962 -0.05 0.043594271 -32.516164 -8.3617455e-16 2.7354977
0.65987412 -0.05 0.044118246 -31.982955 -1.631644e-16 2.6596474
0.65361813 -0.05 0.04463631 -31.460063 2.5908596e-16 2.585347
0.64736163 -0.05 0.045148373 -30.949054 -2.0181652e-16 2.5122699
0.64110464 -0.05 0.045654271 -30.448658 1.1074772e-15 2.4408803
0.63484715 -0.05 0.046153969 -29.955808 3.1188125e-16 2.3711922
0.62858916 -0.05 0.046647471 -29.465295 5.1520078e-17 2.3026051
0.62233069 -0.05 0.047134639 -28.96816 -2.6905422e-16 2.2341561
0.61607172 -0.05 0.047615389 -28.458112 5.8084273e-17 2.1657902
0.60981225 -0.05 0.048089716 -27.934805 -5.1829124e-16 2.0967658
0.60355229 -0.05 0.048557477 -27.40792 5.1409272e-16 2.0276095
0.59729185 -0.05 0.0490186 -26.889618 -5.8317319e-16 1.9597492
0.5910309 -0.05 0.049473 -26.383943 -3.2618756e-16 1.8934437
0.58476946 -0.05 0.049920588 -25.88838 -7.8967684e-16 1.8288248
0.57850753 -0.05 0.050361245 -25.401653 -2.9633839e-17 1.7654721
0.57224512 -0.05 0.050794831 -24.91715 8.3021327e-16 1.7035732
0.56598221 -0.05 0.051221308 -24.425825 2.7839554e-16 1.6424006
0.55971882 -0.05 0.051640558 -23.915203 -3.3882273e-16 1.5807801
0.55345493 -0.05 0.052052417 -23.379883 2.2897556e-16 1.5181989
0.54719055 -0.05 0.052456816 -22.830221 -6.6280949e-16 1.4550816
0.5409257 -0.05 0.052853589 -22.286851 4.3751806e-16 1.3926122
0.53466035 -0.05 0.0532426 -21.756168 4.7379799e-16 1.3319744
0.52839453 -0.05 0.053623776 -21.238404 8.3293565e-17 1.2730059
0.52212822 -0.05 0.053996944 -20.733068 -9.3788479e-17 1.2161003
0.51586143 -0.05 0.054361966 -20.2375 4.2644666e-16 1.1612295
0.50959416 -0.05 0.05471867 -19.742888 -5.3743453e-17 1.1075587
0.50332642 -0.05 0.055066922 -19.233923 -5.5981158e-16 1.0545198
0.49705821 -0.05 0.055406595 -18.695866 -7.2963341e-17 1.0006234
0.49078952 -0.05 0.055737493 -18.143281 6.4954381e-16 0.9461411
0.48452037 -0.05 0.056059413 -17.60238 -5.4460258e-16 0.89252591
0.47825076 -0.05 0.05637223 -17.072543 2.4710817e-16 0.84007807
0.47198069 -0.05 0.056675806 -16.556997 -3.7186777e-16 0.78925985
0.46571018 -0.05 0.056969891 -16.050627 -9.1793064e-17 0.74002682
0.45943922 -0.05 0.05725427 -15.552944 -4.3862215e-16 0.69245021
0.45316781 -0.05 0.05752878 -15.064007 -3.5080894e-16 0.6465056
0.44689598 -0.05 0.057793239 -14.583241 2.7997716e-16 0.60207868
0.44062371 -0.05 0.05804742 -14.110288 -7.5500338e-18 0.55908717
0.43435103 -0.05 0.058291084 -13.644172 5.1551819e-17 0.51751067
0.42807795 -0.05 0.058524018 -13.186108 2.5054919e-16 0.47745829
0.42180446 -0.05 0.058746027 -12.740804 1.6427728e-16 0.43897094
0.41553059 -0.05 0.05895686 -12.311501 7.3951037e-17 0.40201363
0.40925635 -0.05 0.059156238 -11.899599 -3.3674861e-16 0.3666657
0.40298175 -0.05 0.059343938 -11.506306 1.4448137e-16 0.33300049
0.3967068 -0.05 0.059519675 -11.128747 -1.3738399e-16 0.30070642
0.39043152 -0.05 0.059683139 -10.770847 3.8512443e-16 0.26983222
0.38415593 -0.05 0.059834115 -10.434425 1.8795081e-16 0.24041168
0.37788005 -0.05 0.059972363 -10.118933 9.9112383e-17 0.21240144
0.37160388 -0.05 0.060097485 -9.819401 -8.5202405e-17 0.18549574
0.36532747 -0.05 0.060209159 -9.5334276 1.0771708e-16 0.15978605
0.35905083 -0.05 0.060307145 -9.2598504 1.1191103e-16 0.13508851
0.35277398 -0.05 0.060391108 -8.9978033 6.9834475e-17 0.11142931
0.34649695 -0.05 0.060460689 -8.7462175 -3.7350046e-18 0.088587574
0.34021978 -0.05 0.060515502 -8.5048184 -1.1793133e-17 0.066393094
0.33394251 -0.05 0.060555219 -8.2729593 3.3376808e-17 0.043467163
0.32766515 -0.05 0.060579447 -8.0505336 -1.1813614e-17 0.021296037
0.32138775 -0.05 0.060587764 -7.836193 -2.7951478e-19 0.00042520427
0.31511034 -0.05 0.060579779 -7.6301066 1.6111535e-17 -0.020359586
0.30883299 -0.05 0.060555079 -7.4342057 -2.450657e-17 -0.040858223
0.30255571 -0.05 0.06051323 -7.2627577 3.54372e-17 -0.058518987
