# yPlus  FACE_DATA 448
# x y z  yPlus
0.29773926 -0.05 -0.059544879 22.292271
0.29210216 -0.05 -0.059585987 22.683051
0.28654614 -0.05 -0.059611935 23.014801
0.28107004 -0.05 -0.059622943 23.34061
0.27567276 -0.05 -0.059619291 23.66048
0.27035321 -0.05 -0.059601286 23.973869
0.26511029 -0.05 -0.059569214 24.278781
0.25994294 -0.05 -0.059523329 24.577123
0.25485014 -0.05 -0.059463933 24.869562
0.24983081 -0.05 -0.05939128 25.157127
0.24488398 -0.05 -0.059305565 25.437567
0.24000861 -0.05 -0.059207077 25.710837
0.23520372 -0.05 -0.059096069 25.973958
0.23046835 -0.05 -0.058972813 26.223833
0.22580151 -0.05 -0.058837564 26.460525
0.22120227 -0.05 -0.058690502 26.683797
0.21666969 -0.05 -0.0585319 26.894045
0.21220286 -0.05 -0.058361994 27.097671
0.20780086 -0.05 -0.058180921 27.298633
0.20346281 -0.05 -0.05798896 27.502386
0.19918782 -0.05 -0.057786331 27.704083
0.19497502 -0.05 -0.057573275 27.896503
0.19082355 -0.05 -0.057350006 28.069177
0.18673259 -0.05 -0.057116616 28.214843
0.18270129 -0.05 -0.056873365 28.334132
0.17872884 -0.05 -0.056620454 28.445538
0.17481442 -0.05 -0.056358051 28.571251
0.17095725 -0.05 -0.056086374 28.728279
0.16715654 -0.05 -0.055805592 28.901441
0.16341152 -0.05 -0.05551585 29.090227
0.15972145 -0.05 -0.055217286 29.294347
0.15608556 -0.05 -0.054910135 29.522602
0.15250311 -0.05 -0.054594515 29.7821
0.1489734 -0.05 -0.054270578 30.067473
0.14549569 -0.05 -0.053938481 30.367062
0.1420693 -0.05 -0.053598323 30.669325
0.13869352 -0.05 -0.053250271 30.967745
0.13536768 -0.05 -0.052894446 31.259319
0.1320911 -0.05 -0.052531027 31.540877
0.12886312 -0.05 -0.052160126 31.812592
0.1256831 -0.05 -0.051781779 32.07243
0.12255041 -0.05 -0.051396175 32.320907
0.11946438 -0.05 -0.05100344 32.558672
0.11642443 -0.05 -0.050603597 32.784525
0.11342995 -0.05 -0.050196723 32.998368
0.11048034 -0.05 -0.049782958 33.200678
0.10757502 -0.05 -0.049362338 33.391784
0.1047134 -0.05 -0.048934961 33.570177
0.10189491 -0.05 -0.048500989 33.739117
0.099118997 -0.05 -0.048060367 33.89847
0.09638513 -0.05 -0.047613154 34.046299
0.093692759 -0.05 -0.047159497 34.185381
0.091041378 -0.05 -0.046699316 34.315145
0.088430467 -0.05 -0.046232681 34.433324
0.085859515 -0.05 -0.045759659 34.543282
0.083328031 -0.05 -0.045280281 34.643
0.080835525 -0.05 -0.044794592 34.735363
0.078381549 -0.05 -0.04430249 34.818799
0.075965645 -0.05 -0.043803969 34.893043
0.073587348 -0.05 -0.043299105 34.956555
0.071246213 -0.05 -0.042787918 35.010801
0.068941832 -0.05 -0.042270297 35.054856
0.066673797 -0.05 -0.041746206 35.086733
0.064441695 -0.05 -0.04121564 35.109792
0.062245148 -0.05 -0.04067851 35.121917
0.060083788 -0.05 -0.040134733 35.122894
0.057957251 -0.05 -0.039584249 35.112714
0.055865195 -0.05 -0.039026956 35.092188
0.053807271 -0.05 -0.03846282 35.059982
0.051783185 -0.05 -0.037891656 35.019604
0.049792649 -0.05 -0.037313312 34.965393
0.047835357 -0.05 -0.036727723 34.901725
0.045911056 -0.05 -0.036134707 34.827145
0.044019507 -0.05 -0.035534078 34.743401
0.04216052 -0.05 -0.034925562 34.646588
0.040333891 -0.05 -0.034308964 34.536659
0.038539425 -0.05 -0.033684136 34.419823
0.036776986 -0.05 -0.033050791 34.295952
0.035046472 -0.05 -0.032408623 34.157037
0.033347806 -0.05 -0.031757318 34.00931
0.031680935 -0.05 -0.031096559 33.848608
0.030045852 -0.05 -0.030425995 33.677862
0.028442611 -0.05 -0.029745193 33.494833
0.02687128 -0.05 -0.029053771 33.299925
0.025332007 -0.05 -0.028351244 33.094614
0.023824998 -0.05 -0.027637093 32.876483
0.022350514 -0.05 -0.026910809 32.646344
0.020908935 -0.05 -0.026171761 32.404631
0.019500666 -0.05 -0.025419377 32.14729
0.018126278 -0.05 -0.024652929 31.879387
0.016786428 -0.05 -0.023871655 31.590911
0.015481866 -0.05 -0.02307481 31.287254
0.014213533 -0.05 -0.022261541 30.961001
0.012982548 -0.05 -0.021430982 30.614213
0.011790228 -0.05 -0.020582234 30.23896
0.010638118 -0.05 -0.01971429 29.831697
0.0095279582 -0.05 -0.018826085 29.37664
0.0084618068 -0.05 -0.017916749 28.871805
0.0074421468 -0.05 -0.016985423 28.308956
0.0064717016 -0.05 -0.016031 27.671348
0.0055535231 -0.05 -0.015052727 26.931475
0.0046913422 -0.05 -0.014050405 26.065064
0.0038890259 -0.05 -0.013023627 25.034963
0.003150663 -0.05 -0.011972532 23.816398
0.0024810041 -0.05 -0.010898397 22.372104
0.0018846365 -0.05 -0.0098026548 20.656319
0.0013659234 -0.05 -0.0086877624 18.610909
0.00092882832 -0.05 -0.0075577215 16.226776
0.00057647156 -0.05 -0.0064169032 13.397456
0.00031065473 -0.05 -0.0052705967 10.142643
0.00013151723 -0.05 -0.0041248585 7.0099265
3.7618632e-05 -0.05 -0.0029857677 2.6366736
0.99686307 -0.05 0.0067762593 3.7337588
0.99065887 -0.05 0.0058203322 0.40917973
0.9844536 -0.05 0.0048713824 0.67170927
0.97824727 -0.05 0.0039293832 0.42205895
0.9720399 -0.05 0.0029942287 0.45047338
0.96583154 -0.05 0.0020657606 0.20564904
0.95962217 -0.05 0.0011439962 0.37369251
0.95341182 -0.05 0.00022887212 0.32597659
0.94720052 -0.05 -0.00067976616 0.36528707
0.94098828 -0.05 -0.001582003 0.36403161
0.93477512 -0.05 -0.0024778433 0.37955718
0.92856106 -0.05 -0.0033673468 0.38688072
0.92234609 -0.05 -0.0042505902 0.39661482
0.91613024 -0.05 -0.0051276082 0.40472197
0.90991354 -0.05 -0.0059985517 0.41420639
0.90369599 -0.05 -0.0068634181 0.42208686
0.89747762 -0.05 -0.0077222388 0.43326654
0.89125842 -0.05 -0.0085751496 0.43936377
0.88503841 -0.05 -0.0094221639 0.44723663
0.8788176 -0.05 -0.010263225 0.4559557
0.872596 -0.05 -0.011098471 0.46458518
0.86637363 -0.05 -0.011927969 0.47363843
0.86015051 -0.05 -0.012751691 0.48306074
0.85392662 -0.05 -0.013569722 0.49359816
0.84770199 -0.05 -0.014382126 0.50521683
0.84147664 -0.05 -0.015188889 0.5137661
0.83525056 -0.05 -0.015989973 0.52433172
0.82902377 -0.05 -0.016785556 0.53229359
0.82279627 -0.05 -0.017575596 0.54230116
0.81656807 -0.05 -0.018360047 0.55149745
0.81033917 -0.05 -0.019138989 0.56943055
0.80410959 -0.05 -0.019912431 0.59253367
0.79787933 -0.05 -0.020680404 0.61848599
0.79164839 -0.05 -0.021442864 0.76583407
0.78541681 -0.05 -0.022199897 0.79488229
0.77918455 -0.05 -0.022951467 0.79241002
0.77295163 -0.05 -0.023697543 0.79610592
0.76671807 -0.05 -0.024438187 0.75430948
0.76048385 -0.05 -0.025173384 0.7774536
0.75424899 -0.05 -0.025903122 0.76505563
0.74801351 -0.05 -0.026627377 0.74035896
0.74177738 -0.05 -0.027346129 0.70085078
0.73554062 -0.05 -0.028059367 0.64041121
0.72930323 -0.05 -0.028767054 0.54259809
0.72306521 -0.05 -0.029469223 0.37846581
0.71682658 -0.05 -0.030165904 0.23291986
0.71058732 -0.05 -0.030856922 0.51211413
0.70434744 -0.05 -0.031542328 0.67208604
0.69810694 -0.05 -0.032222089 0.82274426
0.69186582 -0.05 -0.03289611 0.96878041
0.68562408 -0.05 -0.033564448 1.1159016
0.67938174 -0.05 -0.034227006 1.2633164
0.67313878 -0.05 -0.034883792 1.4133607
0.6668952 -0.05 -0.035534692 1.565631
0.66065101 -0.05 -0.036179604 1.7211684
0.65440621 -0.05 -0.036818613 1.8843481
0.6481608 -0.05 -0.037451634 2.0565869
0.64191476 -0.05 -0.038078499 2.2363788
0.63566811 -0.05 -0.038699176 2.4228961
0.62942085 -0.05 -0.039313667 2.6162409
0.62317296 -0.05 -0.039921835 2.8157947
0.61692446 -0.05 -0.040523595 3.0201923
0.61067535 -0.05 -0.041118944 3.2298626
0.60442561 -0.05 -0.041707737 3.4434083
0.59817526 -0.05 -0.042289903 3.6622469
0.59192428 -0.05 -0.042865357 3.8867067
0.58567267 -0.05 -0.04343401 4.1188143
0.57942045 -0.05 -0.043995743 4.3718104
0.57316758 -0.05 -0.044550413 4.6286205
0.5669141 -0.05 -0.045097988 4.8910023
0.56066 -0.05 -0.045638346 5.1587149
0.55440525 -0.05 -0.046171324 5.4300384
0.54814988 -0.05 -0.046696852 5.7063095
0.54189387 -0.05 -0.047214765 5.9880432
0.53563723 -0.05 -0.047724927 6.2747889
0.52937994 -0.05 -0.048227265 6.5672385
0.52312203 -0.05 -0.048721607 6.8645382
0.51686348 -0.05 -0.049207812 7.1673009
0.51060428 -0.05 -0.049685712 7.4760313
0.50434445 -0.05 -0.050155168 7.7909424
0.49808398 -0.05 -0.050616057 8.1133588
0.49182287 -0.05 -0.051068182 8.4411395
0.48556112 -0.05 -0.05151134 8.7743847
0.47929874 -0.05 -0.051945405 9.1144342
0.47303573 -0.05 -0.052370239 9.4695842
0.46677208 -0.05 -0.052785593 9.8662537
0.46050779 -0.05 -0.05319125 10.302007
0.45424287 -0.05 -0.05358705 10.734793
0.44797732 -0.05 -0.05397281 11.164848
0.44171115 -0.05 -0.054348302 11.595193
0.43544436 -0.05 -0.054713286 12.026094
0.42917695 -0.05 -0.055067551 12.461027
0.42290894 -0.05 -0.055410899 12.900713
0.41664032 -0.05 -0.055743081 13.344111
0.41037111 -0.05 -0.056063819 13.79115
0.40410132 -0.05 -0.056372887 14.24336
0.39783095 -0.05 -0.056670001 14.700136
0.39156 -0.05 -0.05695485 15.159397
0.38528851 -0.05 -0.05722722 15.622041
0.37901647 -0.05 -0.057486869 16.090153
0.3727439 -0.05 -0.057733401 16.561727
0.36647083 -0.05 -0.057966493 17.035205
0.36019725 -0.05 -0.058185904 17.511781
0.3539232 -0.05 -0.058391297 17.992854
0.34764871 -0.05 -0.058582315 18.477514
0.34137377 -0.05 -0.058758571 18.964359
0.33509843 -0.05 -0.058919735 19.452187
0.32882272 -0.05 -0.059065415 19.942345
0.32254666 -0.05 -0.059195187 20.435306
0.31627027 -0.05 -0.059308662 20.929622
0.30999361 -0.05 -0.059405424 21.425818
0.30371671 -0.05 -0.059485037 21.873156
0.29657822 -0.05 0.060457408 22.932211
0.29094139 -0.05 0.06038944 22.527742
0.2853859 -0.05 0.060307882 22.191345
0.27991062 -0.05 0.060212935 21.864489
0.27451442 -0.05 0.060104856 21.552731
0.26919621 -0.05 0.05998393 21.254095
0.26395489 -0.05 0.059850422 20.968993
0.25878941 -0.05 0.059704567 20.696762
0.2536987 -0.05 0.059546643 20.438444
0.24868173 -0.05 0.059376889 20.193473
0.24373747 -0.05 0.059195476 19.959893
0.23886492 -0.05 0.059002677 19.736282
0.23406308 -0.05 0.058798723 19.521571
0.22933097 -0.05 0.058583868 19.314572
0.22466763 -0.05 0.058358349 19.1168
0.2200721 -0.05 0.058122327 18.926892
0.21554344 -0.05 0.057876058 18.74532
0.21108073 -0.05 0.057619756 18.572313
0.20668306 -0.05 0.057353547 18.406478
0.20234953 -0.05 0.057077688 18.247988
0.19807926 -0.05 0.056792383 18.097111
0.19387137 -0.05 0.056497856 17.9536
0.18972501 -0.05 0.056194305 17.818101
0.18563931 -0.05 0.055881804 17.688813
0.18161347 -0.05 0.055560599 17.566291
0.17764666 -0.05 0.055230876 17.451181
0.17373806 -0.05 0.054892785 17.341743
0.16988687 -0.05 0.054546529 17.238963
0.16609231 -0.05 0.054192262 17.141907
0.1623536 -0.05 0.053830114 17.050976
0.15866999 -0.05 0.05346021 16.965093
0.15504072 -0.05 0.053082767 16.885
0.15146505 -0.05 0.052697893 16.810569
0.14794226 -0.05 0.052305722 16.740896
0.14447163 -0.05 0.051906399 16.677547
0.14105246 -0.05 0.05150001 16.619204
0.13768405 -0.05 0.051086707 16.566132
0.13436572 -0.05 0.0506666 16.518059
0.13109679 -0.05 0.050239851 16.475089
0.12787659 -0.05 0.049806564 16.437222
0.12470449 -0.05 0.049366761 16.40205
0.12157983 -0.05 0.048920616 16.370682
0.11850199 -0.05 0.048468245 16.344976
0.11547034 -0.05 0.048009658 16.322961
0.1124843 -0.05 0.047544923 16.304641
0.10954325 -0.05 0.047074165 16.290224
0.1066466 -0.05 0.046597411 16.279919
0.10379379 -0.05 0.046114746 16.271405
0.10098422 -0.05 0.045626321 16.266994
0.098217351 -0.05 0.045132073 16.264775
0.095492651 -0.05 0.044632049 16.264229
0.092809562 -0.05 0.044126383 16.269273
0.09016758 -0.05 0.043614989 16.278381
0.087566186 -0.05 0.043097924 16.287798
0.085004869 -0.05 0.042575247 16.300216
0.082483133 -0.05 0.042046979 16.31225
0.080000491 -0.05 0.041513155 16.328458
0.077556496 -0.05 0.040973664 16.346895
0.075150691 -0.05 0.040428493 16.369083
0.072782606 -0.05 0.039877706 16.394795
0.070451799 -0.05 0.039321318 16.423511
0.068157866 -0.05 0.03875921 16.452374
0.065900395 -0.05 0.038191333 16.481318
0.063678976 -0.05 0.037617679 16.513688
0.061493234 -0.05 0.037038151 16.55116
0.0593428 -0.05 0.036452657 16.592797
0.057227311 -0.05 0.03586113 16.637533
0.05514643 -0.05 0.035263463 16.683144
0.053099806 -0.05 0.034659617 16.729078
0.051087151 -0.05 0.034049396 16.778066
0.049108177 -0.05 0.033432647 16.826455
0.047162581 -0.05 0.032809298 16.88019
0.045250114 -0.05 0.03217916 16.934718
0.043370541 -0.05 0.031542046 16.988835
0.041523675 -0.05 0.030897675 17.043761
0.039709319 -0.05 0.030245851 17.100816
0.037927278 -0.05 0.029586419 17.168103
0.036177423 -0.05 0.028919093 17.244232
0.034459658 -0.05 0.028243563 17.321523
0.032773911 -0.05 0.027559513 17.398394
0.031120137 -0.05 0.026866627 17.470321
0.029498334 -0.05 0.026164552 17.543385
0.027908566 -0.05 0.025452857 17.622291
0.026350907 -0.05 0.024731163 17.693766
0.024825514 -0.05 0.023998984 17.750295
0.023332605 -0.05 0.023255809 17.806346
0.02187245 -0.05 0.022501132 17.880792
0.02044544 -0.05 0.02173433 17.967843
0.019051992 -0.05 0.020954839 18.019477
0.01769269 -0.05 0.020161942 17.994148
0.016368208 -0.05 0.019354891 17.879522
0.015079308 -0.05 0.018532953 17.726663
0.013826947 -0.05 0.017695297 17.60686
0.012612264 -0.05 0.016841077 17.633229
0.011436589 -0.05 0.015969418 17.827354
0.010301487 -0.05 0.015079345 18.194776
0.0092087204 -0.05 0.014169826 18.724151
0.0081603626 -0.05 0.013240031 19.453546
0.007158913 -0.05 0.012289152 20.35509
0.0062071161 -0.05 0.011316131 21.19014
0.0053080373 -0.05 0.010320275 21.799124
0.0044654112 -0.05 0.0093014598 22.180488
0.0036831115 -0.05 0.00825935 22.274909
0.0029652238 -0.05 0.0071941659 22.045248
0.0023164729 -0.05 0.0061072756 21.493062
0.0017414178 -0.05 0.0050001993 20.617326
0.0012443732 -0.05 0.0038754794 19.323914
0.00082922423 -0.05 0.002737193 17.622835
0.00049900637 -0.05 0.0015897709 15.478185
0.00025541843 -0.05 0.00043853574 12.777894
9.8482612e-05 -0.05 -0.00071045401 9.5549038
2.6641104e-05 -0.05 -0.0018511484 6.3791728
0.99685437 -0.05 0.0076755697 65.218388
0.99063284 -0.05 0.0085112769 66.539205
0.98441037 -0.05 0.0093399873 66.936525
0.97818696 -0.05 0.010161728 66.559799
0.97196267 -0.05 0.010976606 66.331155
0.9657375 -0.05 0.011784778 66.045626
0.95951146 -0.05 0.012586228 65.765845
0.95328457 -0.05 0.013381022 65.475157
0.94705686 -0.05 0.014169311 65.180224
0.94082833 -0.05 0.014951183 64.880864
0.93459899 -0.05 0.015726641 64.577125
0.92836888 -0.05 0.016495746 64.269289
0.92213799 -0.05 0.017258575 63.95731
0.91590634 -0.05 0.018015163 63.640883
0.90967395 -0.05 0.01876566 63.3196
0.90344083 -0.05 0.019510066 62.993742
0.897207 -0.05 0.020248411 62.662481
0.89097246 -0.05 0.02098083 62.328022
0.88473723 -0.05 0.02170734 61.990958
0.87850131 -0.05 0.022427881 61.651746
0.87226472 -0.05 0.023142592 61.310892
0.86602747 -0.05 0.023851542 60.969632
0.85978956 -0.05 0.024554702 60.62695
0.85355102 -0.05 0.025252159 60.283176
0.84731185 -0.05 0.025943975 59.937344
0.84107205 -0.05 0.026630136 59.589761
0.83483162 -0.05 0.027310607 59.238832
0.8285906 -0.05 0.027985562 58.884516
0.82234898 -0.05 0.028654963 58.526025
0.81610677 -0.05 0.029318762 58.162569
0.80986397 -0.05 0.029977039 57.795321
0.80362059 -0.05 0.030629804 57.425706
0.79737664 -0.05 0.031277088 57.055347
0.79113212 -0.05 0.031918847 56.685697
0.78488705 -0.05 0.032555167 56.317488
0.77864141 -0.05 0.033186013 55.951324
0.77239522 -0.05 0.033811354 55.585809
0.7661485 -0.05 0.034431249 55.221844
0.75990122 -0.05 0.035045686 54.857551
0.75365342 -0.05 0.035654655 54.490589
0.74740508 -0.05 0.036258126 54.118261
0.74115621 -0.05 0.036856086 53.740299
0.73490682 -0.05 0.037448519 53.356793
0.7286569 -0.05 0.03803539 52.970308
0.72240648 -0.05 0.038616733 52.583496
0.71615553 -0.05 0.039192576 52.200066
0.70990407 -0.05 0.039762746 51.819738
0.70365209 -0.05 0.040327292 51.442736
0.69739961 -0.05 0.040886182 51.067805
0.69114661 -0.05 0.041439322 50.692323
0.68489312 -0.05 0.041986768 50.312953
0.67863913 -0.05 0.042528422 49.925802
0.67238463 -0.05 0.043064296 49.529078
0.66612962 -0.05 0.043594271 49.125933
0.65987412 -0.05 0.044118246 48.721226
0.65361813 -0.05 0.04463631 48.321151
0.64736163 -0.05 0.045148373 47.927031
0.64110464 -0.05 0.045654271 47.537994
0.63484715 -0.05 0.046153969 47.151785
0.62858916 -0.05 0.046647471 46.764366
0.62233069 -0.05 0.047134639 46.368195
0.61607172 -0.05 0.047615389 45.958352
0.60981225 -0.05 0.048089716 45.534149
0.60355229 -0.05 0.048557477 45.102842
0.59729185 -0.05 0.0490186 44.674126
0.5910309 -0.05 0.049473 44.252172
0.58476946 -0.05 0.049920588 43.834734
0.57850753 -0.05 0.050361245 43.420987
0.57224512 -0.05 0.050794831 43.005042
0.56598221 -0.05 0.051221308 42.579306
0.55971882 -0.05 0.051640558 42.132225
0.55345493 -0.05 0.052052417 41.658466
0.54719055 -0.05 0.052456816 41.166006
0.5409257 -0.05 0.052853589 40.673432
0.53466035 -0.05 0.0532426 40.186431
0.52839453 -0.05 0.053623776 39.705599
0.52212822 -0.05 0.053996944 39.230637
0.51586143 -0.05 0.054361966 38.759447
0.50959416 -0.05 0.05471867 38.283209
0.50332642 -0.05 0.055066922 37.787163
0.49705821 -0.05 0.055406595 37.255442
0.49078952 -0.05 0.055737493 36.701331
0.48452037 -0.05 0.056059413 36.150644
0.47825076 -0.05 0.05637223 35.603001
0.47198069 -0.05 0.056675806 35.061772
0.46571018 -0.05 0.056969891 34.522185
0.45943922 -0.05 0.05725427 33.983489
0.45316781 -0.05 0.05752878 33.445885
0.44689598 -0.05 0.057793239 32.908513
0.44062371 -0.05 0.05804742 32.371258
0.43435103 -0.05 0.058291084 31.832785
0.42807795 -0.05 0.058524018 31.294829
0.42180446 -0.05 0.058746027 30.762624
0.41553059 -0.05 0.05895686 30.240943
0.40925635 -0.05 0.059156238 29.731601
0.40298175 -0.05 0.059343938 29.237108
0.3967068 -0.05 0.059519675 28.75408
0.39043152 -0.05 0.059683139 28.288867
0.38415593 -0.05 0.059834115 27.844333
0.37788005 -0.05 0.059972363 27.421244
0.37160388 -0.05 0.060097485 27.012919
0.36532747 -0.05 0.060209159 26.617581
0.35905083 -0.05 0.060307145 26.233415
0.35277398 -0.05 0.060391108 25.860396
0.34649695 -0.05 0.060460689 25.496474
0.34021978 -0.05 0.060515502 25.142886
0.33394251 -0.05 0.060555219 24.798182
0.32766515 -0.05 0.060579447 24.463073
0.32138775 -0.05 0.060587764 24.135173
0.31511034 -0.05 0.060579779 23.81611
0.30883299 -0.05 0.060555079 23.508483
0.30255571 -0.05 0.06051323 23.264562
