# p  FACE_DATA 448
# x y z  p
0.29504494 -0.05 -0.061608298 99543.915
0.2894116 -0.05 -0.061398763 99540.105
0.28385991 -0.05 -0.061177687 99537.276
0.27838874 -0.05 -0.060945241 99534.415
0.27299695 -0.05 -0.060701652 99531.714
0.26768346 -0.05 -0.06044718 99529.158
0.26244714 -0.05 -0.060182061 99526.699
0.25728695 -0.05 -0.059906503 99524.432
0.25220182 -0.05 -0.059620761 99522.195
0.24719069 -0.05 -0.059325041 99520.156
0.24225256 -0.05 -0.059019496 99518.239
0.23738639 -0.05 -0.058704367 99516.473
0.23259119 -0.05 -0.058379863 99514.829
0.22786597 -0.05 -0.058046214 99513.284
0.22320976 -0.05 -0.05770363 99511.873
0.21862161 -0.05 -0.05735225 99510.657
0.21410056 -0.05 -0.056992307 99509.474
0.2096457 -0.05 -0.056623991 99508.48
0.2052561 -0.05 -0.056247404 99507.647
0.20093087 -0.05 -0.055862781 99506.935
0.19666912 -0.05 -0.055470304 99506.41
0.19246995 -0.05 -0.055070176 99505.935
0.18833252 -0.05 -0.05466257 99505.632
0.18425597 -0.05 -0.054247543 99505.541
0.18023946 -0.05 -0.053825317 99505.491
0.17628219 -0.05 -0.053396058 99505.68
0.17238331 -0.05 -0.052959897 99505.944
0.16854203 -0.05 -0.052517015 99506.397
0.16475756 -0.05 -0.052067546 99506.958
0.16102913 -0.05 -0.051611603 99507.757
0.15735597 -0.05 -0.05114929 99508.707
0.15373733 -0.05 -0.050680805 99509.771
0.15017246 -0.05 -0.050206238 99511.039
0.14666063 -0.05 -0.049725705 99512.376
0.14320113 -0.05 -0.049239331 99513.905
0.13979324 -0.05 -0.048747186 99515.627
0.13643627 -0.05 -0.048249405 99517.557
0.13312954 -0.05 -0.047746079 99519.718
0.12987236 -0.05 -0.047237355 99521.969
0.12666407 -0.05 -0.046723319 99524.488
0.12350402 -0.05 -0.046203977 99527.212
0.12039155 -0.05 -0.045679487 99529.961
0.11732603 -0.05 -0.045149948 99532.902
0.11430687 -0.05 -0.044615356 99536.113
0.11133343 -0.05 -0.044075764 99539.573
0.10840513 -0.05 -0.04353128 99543.227
0.10552138 -0.05 -0.042981918 99547.263
0.10268159 -0.05 -0.042427748 99551.398
0.099885176 -0.05 -0.041868906 99555.672
0.0971316 -0.05 -0.041305314 99560.274
0.09442032 -0.05 -0.040737007 99565.031
0.091750779 -0.05 -0.040164107 99570.056
0.089122476 -0.05 -0.039586512 99575.553
0.08653489 -0.05 -0.039004268 99581.244
0.08398751 -0.05 -0.03841742 99587.339
0.081479839 -0.05 -0.037825976 99593.481
0.079011389 -0.05 -0.037229961 99599.887
0.076581716 -0.05 -0.036629252 99606.701
0.074190363 -0.05 -0.036023823 99613.982
0.071836861 -0.05 -0.035413728 99621.575
0.069520765 -0.05 -0.03479897 99629.621
0.067241675 -0.05 -0.034179419 99638.163
0.06499918 -0.05 -0.033555018 99646.945
0.062792871 -0.05 -0.032925747 99656.001
0.060622375 -0.05 -0.032291499 99665.537
0.058487326 -0.05 -0.031652174 99675.672
0.056387364 -0.05 -0.031007697 99686.438
0.054322151 -0.05 -0.030357951 99697.846
0.052291341 -0.05 -0.029702887 99709.603
0.050294648 -0.05 -0.029042305 99722.003
0.04833179 -0.05 -0.028376041 99734.935
0.046402466 -0.05 -0.027704019 99748.669
0.044506429 -0.05 -0.027026042 99763.146
0.042643454 -0.05 -0.026341918 99778.646
0.040813356 -0.05 -0.025651359 99795.2
0.039015944 -0.05 -0.024954167 99812.357
0.037251029 -0.05 -0.024250182 99829.99
0.035518489 -0.05 -0.023539113 99848.747
0.033818234 -0.05 -0.022820648 99868.962
0.032150201 -0.05 -0.022094471 99890.842
0.030514353 -0.05 -0.021360264 99914.036
0.028910697 -0.05 -0.020617674 99938.265
0.027339307 -0.05 -0.019866272 99963.621
0.025800266 -0.05 -0.019105678 99990.98
0.024293746 -0.05 -0.018335416 100021.03
0.022819976 -0.05 -0.017554976 100053.02
0.021379238 -0.05 -0.01676386 100086.84
0.019971939 -0.05 -0.015961456 100122.18
0.018598509 -0.05 -0.01514721 100159.21
0.017259553 -0.05 -0.01432042 100199.07
0.01595576 -0.05 -0.013480355 100242.72
0.014687912 -0.05 -0.012626302 100290.54
0.013456987 -0.05 -0.011757453 100342.9
0.012264144 -0.05 -0.010872991 100400.21
0.011110735 -0.05 -0.0099720764 100462.67
0.009998348 -0.05 -0.009053772 100530
0.0089287716 -0.05 -0.008117092 100601.86
0.0079040995 -0.05 -0.0071612579 100677.52
0.0069268504 -0.05 -0.0061855236 100757.28
0.0059997943 -0.05 -0.0051889022 100842.24
0.0051260135 -0.05 -0.0041707773 100932.49
0.004309244 -0.05 -0.0031311181 101026.36
0.0035533672 -0.05 -0.0020696872 101122.51
0.0028624617 -0.05 -0.00098680698 101218.92
0.0022412163 -0.05 0.00011603595 101312.48
0.0016941504 -0.05 0.0012372074 101398.95
0.0012255136 -0.05 0.0023740571 101472.82
0.00083908745 -0.05 0.0035224124 101532.63
0.00053779507 -0.05 0.004677767 101572.01
0.00032320104 -0.05 0.0058347574 101586.45
0.00019517537 -0.05 0.0069873265 101575.35
0.00015200882 -0.05 0.0081294655 101537
0.99642593 -0.05 -0.026432846 100197.49
0.99018537 -0.05 -0.027112016 100099.36
0.98394405 -0.05 -0.027784167 100099.06
0.97770197 -0.05 -0.028449328 100078.92
0.97145917 -0.05 -0.029107604 100066.92
0.96521566 -0.05 -0.029759156 100054.29
0.95897146 -0.05 -0.030403967 100043.51
0.95272657 -0.05 -0.0310421 100033.29
0.94648102 -0.05 -0.031673711 100023.85
0.94023481 -0.05 -0.032298886 100014.85
0.93398797 -0.05 -0.032917629 100006.49
0.9277405 -0.05 -0.033530002 99998.416
0.92149241 -0.05 -0.034136081 99990.828
0.91524372 -0.05 -0.034735901 99983.572
0.90899445 -0.05 -0.035329616 99976.522
0.9027446 -0.05 -0.03591722 99969.814
0.89649418 -0.05 -0.036498748 99963.328
0.89024323 -0.05 -0.037074337 99956.951
0.88399171 -0.05 -0.037643998 99950.787
0.87773966 -0.05 -0.038207677 99944.929
0.87148708 -0.05 -0.038765511 99939.081
0.86523399 -0.05 -0.039317568 99933.462
0.8589804 -0.05 -0.039863822 99927.98
0.8527263 -0.05 -0.040404356 99922.61
0.84647171 -0.05 -0.040939237 99917.297
0.84021665 -0.05 -0.041468449 99912.153
0.8339611 -0.05 -0.041991955 99907.199
0.8277051 -0.05 -0.042509934 99902.103
0.82144864 -0.05 -0.043022344 99897.295
0.81519172 -0.05 -0.043529141 99892.446
0.80893435 -0.05 -0.044030402 99887.748
0.80267654 -0.05 -0.044526138 99883.022
0.79641831 -0.05 -0.04501638 99878.402
0.79015963 -0.05 -0.045501085 99873.874
0.78390055 -0.05 -0.045980339 99869.277
0.77764104 -0.05 -0.046454106 99864.856
0.77138112 -0.05 -0.046922356 99860.465
0.76512079 -0.05 -0.047385149 99856.111
0.75886005 -0.05 -0.047842471 99851.765
0.75259893 -0.05 -0.048294314 99847.448
0.74633741 -0.05 -0.048740648 99843.137
0.74007548 -0.05 -0.049181457 99838.837
0.73381318 -0.05 -0.04961673 99834.595
0.72755051 -0.05 -0.050046429 99830.429
0.72128744 -0.05 -0.050470587 99826.221
0.715024 -0.05 -0.050889236 99822.015
0.70876019 -0.05 -0.051302199 99817.999
0.70249601 -0.05 -0.051709529 99813.767
0.69623146 -0.05 -0.052111192 99809.729
0.68996654 -0.05 -0.052507093 99805.581
0.68370127 -0.05 -0.052897289 99801.447
0.67743564 -0.05 -0.053281682 99797.336
0.67116966 -0.05 -0.053660284 99793.141
0.66490332 -0.05 -0.054032977 99789.123
0.65863663 -0.05 -0.05439966 99785.152
0.65236959 -0.05 -0.054760421 99781.062
0.64610221 -0.05 -0.05511517 99777.005
0.63983448 -0.05 -0.055463742 99772.979
0.63356641 -0.05 -0.055806106 99768.898
0.62729802 -0.05 -0.056142263 99764.739
0.62102928 -0.05 -0.056472075 99760.681
0.6147602 -0.05 -0.056795458 99756.576
0.6084908 -0.05 -0.057112408 99752.473
0.60222106 -0.05 -0.057422783 99748.459
0.595951 -0.05 -0.057726508 99744.397
0.58968063 -0.05 -0.058023501 99740.34
0.58340992 -0.05 -0.058313671 99736.176
0.5771389 -0.05 -0.058596901 99732.061
0.57086757 -0.05 -0.058873047 99727.929
0.56459592 -0.05 -0.059142078 99723.72
0.55832397 -0.05 -0.05940387 99719.515
0.55205171 -0.05 -0.059658261 99715.313
0.54577917 -0.05 -0.059905181 99711.039
0.53950632 -0.05 -0.060144467 99706.837
0.53323318 -0.05 -0.06037598 99702.579
0.52695976 -0.05 -0.060599649 99698.259
0.52068605 -0.05 -0.060815301 99693.902
0.51441207 -0.05 -0.061022796 99689.572
0.50813781 -0.05 -0.061221965 99685.299
0.5018633 -0.05 -0.061412671 99680.942
0.49558854 -0.05 -0.061594791 99676.559
0.48931352 -0.05 -0.061768127 99672.172
0.48303826 -0.05 -0.061932474 99667.814
0.47676277 -0.05 -0.062087711 99663.379
0.47048706 -0.05 -0.062233698 99658.916
0.46421113 -0.05 -0.062370185 99654.483
0.45793501 -0.05 -0.062496958 99650.071
0.45165869 -0.05 -0.062613855 99645.653
0.44538218 -0.05 -0.062720693 99641.227
0.43910552 -0.05 -0.062817246 99636.816
0.43282869 -0.05 -0.062903273 99632.431
0.42655174 -0.05 -0.062978565 99628.048
0.42027465 -0.05 -0.063042925 99623.656
0.41399747 -0.05 -0.063096102 99619.294
0.4077202 -0.05 -0.06313782 99614.967
0.40144286 -0.05 -0.063167853 99610.596
0.39516548 -0.05 -0.063185918 99606.303
0.38888807 -0.05 -0.063191706 99602.072
0.38261067 -0.05 -0.063185003 99597.826
0.37633329 -0.05 -0.063165567 99593.555
0.37005597 -0.05 -0.063133003 99589.423
0.36377873 -0.05 -0.06308699 99585.284
0.35750161 -0.05 -0.063027288 99581.179
0.35122464 -0.05 -0.062953559 99577.104
0.34494785 -0.05 -0.062865451 99573.084
0.33867128 -0.05 -0.062762575 99569.141
0.33239498 -0.05 -0.062644604 99565.183
0.32611899 -0.05 -0.062511149 99561.314
0.31984336 -0.05 -0.062361784 99557.578
0.31356814 -0.05 -0.062196125 99554.072
0.30729338 -0.05 -0.062013757 99550.328
0.30101914 -0.05 -0.061814247 99545.668
0.29921986 -0.05 0.058326964 99409.212
0.29358558 -0.05 0.058509653 99402.157
0.28803196 -0.05 0.058675149 99394.593
0.28255786 -0.05 0.058823705 99387.277
0.2771622 -0.05 0.058955625 99379.972
0.27184386 -0.05 0.059071243 99372.817
0.26660179 -0.05 0.059170874 99365.736
0.26143493 -0.05 0.059254799 99358.838
0.25634224 -0.05 0.059323344 99351.936
0.25132267 -0.05 0.059376791 99345.253
0.24637524 -0.05 0.059415359 99338.587
0.24149894 -0.05 0.059439363 99332.041
0.23669278 -0.05 0.059449081 99325.585
0.2319558 -0.05 0.059444808 99319.208
0.22728704 -0.05 0.059426824 99312.933
0.22268556 -0.05 0.059395333 99306.859
0.21815043 -0.05 0.059350633 99300.736
0.21368074 -0.05 0.059292979 99294.814
0.20927558 -0.05 0.059222535 99289.05
0.20493407 -0.05 0.059139598 99283.336
0.20065535 -0.05 0.059044413 99277.728
0.19643852 -0.05 0.058937244 99272.067
0.19228276 -0.05 0.058818322 99266.57
0.18818722 -0.05 0.058687763 99261.319
0.18415108 -0.05 0.058545848 99256.033
0.18017353 -0.05 0.058392798 99250.979
0.17625376 -0.05 0.058228802 99245.926
0.17239098 -0.05 0.058054096 99241.001
0.16858442 -0.05 0.057868869 99236.07
0.16483331 -0.05 0.057673288 99231.326
0.1611369 -0.05 0.057467507 99226.666
0.15749444 -0.05 0.05725178 99222.043
0.15390519 -0.05 0.057026245 99217.631
0.15036846 -0.05 0.05679107 99213.223
0.1468835 -0.05 0.056546431 99208.964
0.14344965 -0.05 0.056292446 99204.799
0.14006619 -0.05 0.056029297 99200.711
0.13673247 -0.05 0.055757125 99196.783
0.13344779 -0.05 0.055476121 99192.8
0.13021151 -0.05 0.055186419 99189.063
0.127023 -0.05 0.054888068 99185.506
0.1238816 -0.05 0.054581274 99181.858
0.12078668 -0.05 0.054266178 99178.354
0.11773765 -0.05 0.05394282 99175.051
0.1147339 -0.05 0.053611291 99171.889
0.11177482 -0.05 0.053271744 99168.755
0.10885985 -0.05 0.052924235 99165.942
0.1059884 -0.05 0.052568871 99163.029
0.1031599 -0.05 0.052205832 99160.129
0.1003738 -0.05 0.051835074 99157.56
0.097629558 -0.05 0.051456673 99154.914
0.094926642 -0.05 0.051070787 99152.352
0.092264538 -0.05 0.05067735 99150.268
0.08964273 -0.05 0.050276443 99148.129
0.087060708 -0.05 0.049868148 99146.296
0.084517981 -0.05 0.049452508 99144.304
0.082014061 -0.05 0.04902958 99142.561
0.0795485 -0.05 0.048599272 99141.192
0.077120836 -0.05 0.048161592 99140.088
0.074730608 -0.05 0.047716625 99138.977
0.07237737 -0.05 0.047264405 99138.058
0.070060716 -0.05 0.04680483 99137.524
0.067780231 -0.05 0.046337873 99137.133
0.065535507 -0.05 0.045863542 99136.961
0.063326162 -0.05 0.045381755 99137.125
0.061151825 -0.05 0.044892439 99137.605
0.059012132 -0.05 0.044395543 99138.43
0.056906737 -0.05 0.043890974 99139.641
0.054835293 -0.05 0.04337871 99140.943
0.052797499 -0.05 0.042858566 99142.965
0.050793063 -0.05 0.042330404 99145.13
0.04882168 -0.05 0.041794164 99147.813
0.04688309 -0.05 0.04124967 99150.831
0.044977052 -0.05 0.040696743 99154.482
0.043103366 -0.05 0.040135113 99158.947
0.041261826 -0.05 0.039564592 99163.976
0.039452231 -0.05 0.038985034 99169.54
0.03767444 -0.05 0.038396158 99175.981
0.035928342 -0.05 0.03779766 99183.214
0.034213852 -0.05 0.037189228 99191.422
0.03253091 -0.05 0.036570548 99200.508
0.0308795 -0.05 0.035941265 99211.364
0.029259663 -0.05 0.035300949 99223.272
0.027671461 -0.05 0.034649215 99236.405
0.026115026 -0.05 0.033985572 99251.302
0.024590555 -0.05 0.033309501 99268.011
0.023098294 -0.05 0.032620482 99286.818
0.021638607 -0.05 0.031917877 99308.064
0.020211883 -0.05 0.031201104 99331.622
0.018818676 -0.05 0.03046942 99358.621
0.017459625 -0.05 0.029722048 99388.84
0.01613546 -0.05 0.028958222 99423.146
0.014847098 -0.05 0.028177068 99461.638
0.01359564 -0.05 0.027377693 99505.021
0.012382377 -0.05 0.026559161 99553.511
0.011208829 -0.05 0.025720429 99608.445
0.010076709 -0.05 0.02486039 99670.703
0.0089880534 -0.05 0.023978119 99740.948
0.0079453218 -0.05 0.023072701 99820.425
0.0069512094 -0.05 0.022142954 99910.816
0.006008748 -0.05 0.021188052 100010.98
0.0051216625 -0.05 0.020207704 100123.21
0.0042938084 -0.05 0.019201402 100247.29
0.0035292769 -0.05 0.018169185 100382.2
0.0028328488 -0.05 0.017112211 100526.86
0.0022091461 -0.05 0.016031793 100679.24
0.0016625926 -0.05 0.014930282 100835.05
0.0011972506 -0.05 0.013811576 100989.04
0.0008163497 -0.05 0.012679969 101135.98
0.00052182349 -0.05 0.011540701 101269.56
0.00031396355 -0.05 0.010399824 101382.85
0.00019148257 -0.05 0.0092634511 101472.01
0.99645722 -0.05 -0.025534038 100019.94
0.99027899 -0.05 -0.024422574 100021.27
0.9840995 -0.05 -0.023318058 100010.29
0.9779188 -0.05 -0.022220463 100010.86
0.97173688 -0.05 -0.021129686 100005.91
0.96555379 -0.05 -0.020045567 100003.55
0.95936953 -0.05 -0.018968125 100000.03
0.95318413 -0.05 -0.017897296 99997.051
0.94699762 -0.05 -0.016832927 99993.83
0.94081 -0.05 -0.015774935 99990.728
0.93462131 -0.05 -0.014723313 99987.556
0.92843155 -0.05 -0.013678003 99984.416
0.92224073 -0.05 -0.012638929 99981.249
0.91604887 -0.05 -0.011606056 99978.113
0.909856 -0.05 -0.010579235 99974.945
0.90366214 -0.05 -0.0095584673 99971.775
0.89746729 -0.05 -0.0085437226 99968.596
0.89127149 -0.05 -0.0075348654 99965.41
0.88507472 -0.05 -0.0065318825 99962.198
0.87887699 -0.05 -0.0055348303 99958.986
0.87267834 -0.05 -0.0045435724 99955.749
0.86647878 -0.05 -0.0035580411 99952.492
0.86027829 -0.05 -0.0025782651 99949.221
0.85407692 -0.05 -0.0016041584 99945.931
0.84787467 -0.05 -0.00063565908 99942.621
0.84167155 -0.05 0.00032721917 99939.296
0.83546755 -0.05 0.00128444 99935.937
0.8292627 -0.05 0.002236178 99932.556
0.82305701 -0.05 0.0031823929 99929.17
0.81685048 -0.05 0.0041230384 99925.755
0.81064312 -0.05 0.0050581935 99922.326
0.80443493 -0.05 0.0059878674 99918.869
0.79822593 -0.05 0.0069120918 99915.393
0.7920161 -0.05 0.0078308212 99911.889
0.78580549 -0.05 0.0087441421 99908.345
0.77959408 -0.05 0.0096520189 99904.777
0.77338187 -0.05 0.01055442 99901.169
0.76716888 -0.05 0.011451407 99897.527
0.7609551 -0.05 0.012342964 99893.843
0.75474054 -0.05 0.013229081 99890.118
0.74852521 -0.05 0.014109732 99886.349
0.7423091 -0.05 0.014984898 99882.536
0.73609222 -0.05 0.015854567 99878.675
0.72987457 -0.05 0.016718703 99874.767
0.72365617 -0.05 0.017577339 99870.798
0.71743701 -0.05 0.018430504 99866.768
0.71121707 -0.05 0.019278024 99862.698
0.70499637 -0.05 0.020119949 99858.536
0.69877492 -0.05 0.020956246 99854.335
0.6925527 -0.05 0.021786821 99850.034
0.68632972 -0.05 0.02261173 99845.661
0.68010598 -0.05 0.023430875 99841.21
0.6738815 -0.05 0.024244267 99836.675
0.66765624 -0.05 0.02505179 99832.083
0.66143021 -0.05 0.025853342 99827.392
0.65520343 -0.05 0.026649008 99822.592
0.64897589 -0.05 0.027438702 99817.706
0.64274758 -0.05 0.028222259 99812.732
0.63651849 -0.05 0.028999645 99807.653
0.63028863 -0.05 0.029770863 99802.453
0.624058 -0.05 0.030535776 99797.16
0.61782658 -0.05 0.031294297 99791.742
0.61159439 -0.05 0.032046426 99786.215
0.60536141 -0.05 0.032792015 99780.591
0.59912765 -0.05 0.033530996 99774.827
0.5928931 -0.05 0.034263282 99768.953
0.58665775 -0.05 0.034988784 99762.935
0.5804216 -0.05 0.035707386 99756.829
0.57418465 -0.05 0.036418943 99750.604
0.56794691 -0.05 0.037123422 99744.241
0.56170834 -0.05 0.037820701 99737.76
0.55546895 -0.05 0.03851062 99731.165
0.54922875 -0.05 0.039193105 99724.434
0.54298773 -0.05 0.039867996 99717.611
0.53674587 -0.05 0.040535153 99710.656
0.53050318 -0.05 0.041194504 99703.702
0.52425966 -0.05 0.041845879 99696.754
0.51801529 -0.05 0.042489134 99689.695
0.51177007 -0.05 0.043124103 99682.533
0.50552401 -0.05 0.043750648 99675.239
0.4992771 -0.05 0.044368644 99667.846
0.49302933 -0.05 0.044977894 99660.367
0.48678068 -0.05 0.045578196 99652.88
0.48053117 -0.05 0.046169424 99645.314
0.4742808 -0.05 0.046751441 99637.659
0.46802956 -0.05 0.047323996 99629.927
0.46177744 -0.05 0.047886874 99622.156
0.45552444 -0.05 0.048439913 99614.365
0.44927056 -0.05 0.048982931 99606.543
0.44301579 -0.05 0.049515699 99598.64
0.43676015 -0.05 0.050037979 99590.677
0.43050362 -0.05 0.050549559 99582.675
0.4242462 -0.05 0.051050241 99574.67
0.41798792 -0.05 0.051539775 99566.668
0.41172874 -0.05 0.052017883 99558.6
0.40546868 -0.05 0.05248434 99550.42
0.39920776 -0.05 0.05293886 99542.258
0.39294595 -0.05 0.053381135 99534.145
0.38668328 -0.05 0.053810949 99526
0.38041973 -0.05 0.05422806 99517.743
0.37415534 -0.05 0.05463207 99509.497
0.3678901 -0.05 0.055022657 99501.197
0.36162402 -0.05 0.05539958 99492.934
0.3553571 -0.05 0.055762501 99484.679
0.34908939 -0.05 0.056111064 99476.376
0.34282086 -0.05 0.056444879 99468.023
0.33655155 -0.05 0.056763618 99459.591
0.33028147 -0.05 0.057066888 99451.266
0.32401065 -0.05 0.057354263 99442.982
0.3177391 -0.05 0.057625354 99434.494
0.31146685 -0.05 0.057879744 99425.696
0.30519392 -0.05 0.058116996 99418.094
