# wallShearStress  FACE_DATA 448
# x y z  wallShearStress_x wallShearStress_y wallShearStress_z
0.29504494 -0.05 -0.061608298 -6.9879518 9.7660918e-17 0.25259857
0.2894116 -0.05 -0.061398763 -6.8503129 -4.9650972e-17 0.2654623
0.28385991 -0.05 -0.061177687 -6.7742852 -2.3518835e-17 0.28041846
0.27838874 -0.05 -0.060945241 -6.6961751 -3.2787259e-16 0.2951489
0.27299695 -0.05 -0.060701652 -6.6237951 1.6172417e-16 0.30980156
0.26768346 -0.05 -0.06044718 -6.5551874 2.2464658e-16 0.32448852
0.26244714 -0.05 -0.060182061 -6.49051 1.3430052e-16 0.33914687
0.25728695 -0.05 -0.059906503 -6.4293363 3.3232694e-16 0.35389554
0.25220182 -0.05 -0.059620761 -6.3715057 6.131559e-16 0.36858959
0.24719069 -0.05 -0.059325041 -6.3169975 -2.0379298e-17 0.38349294
0.24225256 -0.05 -0.059019496 -6.2650302 -1.874047e-17 0.39835976
0.23738639 -0.05 -0.058704367 -6.215769 1.1466984e-16 0.41327295
0.23259119 -0.05 -0.058379863 -6.1686549 -1.927496e-16 0.42817702
0.22786597 -0.05 -0.058046214 -6.1230913 -9.4831715e-17 0.44313231
0.22320976 -0.05 -0.05770363 -6.0799662 2.2981925e-16 0.45827173
0.21862161 -0.05 -0.05735225 -6.0388602 -4.3764614e-17 0.4735366
0.21410056 -0.05 -0.056992307 -5.9999874 -6.5751008e-17 0.48883723
0.2096457 -0.05 -0.056623991 -5.9636912 1.4281975e-16 0.50447388
0.2052561 -0.05 -0.056247404 -5.9291632 2.3331981e-16 0.52019784
0.20093087 -0.05 -0.055862781 -5.8967199 -4.3696363e-17 0.53604181
0.19666912 -0.05 -0.055470304 -5.8662981 1.7725042e-16 0.55210218
0.19246995 -0.05 -0.055070176 -5.8379622 -1.789215e-16 0.56831256
0.18833252 -0.05 -0.05466257 -5.8120379 3.8917842e-17 0.58494909
0.18425597 -0.05 -0.054247543 -5.7877312 -4.4562627e-16 0.60181715
0.18023946 -0.05 -0.053825317 -5.7654618 5.5906514e-17 0.61883829
0.17628219 -0.05 -0.053396058 -5.7454959 3.4804793e-17 0.63633383
0.17238331 -0.05 -0.052959897 -5.7271069 -1.3443901e-16 0.65397661
0.16854203 -0.05 -0.052517015 -5.7108107 -5.9342201e-16 0.67205786
0.16475756 -0.05 -0.052067546 -5.695961 4.3993678e-16 0.6904095
0.16102913 -0.05 -0.051611603 -5.682528 1.8100316e-16 0.70920629
0.15735597 -0.05 -0.05114929 -5.6701177 6.4864616e-16 0.72819024
0.15373733 -0.05 -0.050680805 -5.6594923 4.0748003e-16 0.74759231
0.15017246 -0.05 -0.050206238 -5.6505658 -4.9531241e-18 0.76759747
0.14666063 -0.05 -0.049725705 -5.6432598 -2.2960074e-16 0.7880133
0.14320113 -0.05 -0.049239331 -5.6379428 -3.7699259e-16 0.80909404
0.13979324 -0.05 -0.048747186 -5.6339257 1.5877637e-16 0.8306069
0.13643627 -0.05 -0.048249405 -5.6312197 -1.8633408e-18 0.85259461
0.13312954 -0.05 -0.047746079 -5.6296652 -2.146429e-17 0.87504154
0.12987236 -0.05 -0.047237355 -5.629441 -4.4822343e-16 0.89798798
0.12666407 -0.05 -0.046723319 -5.630546 3.4790415e-16 0.92166169
0.12350402 -0.05 -0.046203977 -5.632005 -2.5253146e-16 0.94566396
0.12039155 -0.05 -0.045679487 -5.6349604 -6.8883741e-16 0.97032983
0.11732603 -0.05 -0.045149948 -5.6400412 -1.6119324e-16 0.99603934
0.11430687 -0.05 -0.044615356 -5.646015 -7.2458746e-17 1.0223875
0.11133343 -0.05 -0.044075764 -5.6524312 -1.267668e-16 1.0492536
0.10840513 -0.05 -0.04353128 -5.6595242 1.8395577e-16 1.0768213
0.10552138 -0.05 -0.042981918 -5.6671095 -1.2882457e-16 1.1050549
0.10268159 -0.05 -0.042427748 -5.6752928 -9.6680216e-17 1.1338021
0.099885176 -0.05 -0.041868906 -5.6859255 -2.5918249e-17 1.1639843
0.0971316 -0.05 -0.041305314 -5.6981492 -4.1676338e-17 1.1952662
0.09442032 -0.05 -0.040737007 -5.7111666 -3.9462237e-16 1.2272216
0.091750779 -0.05 -0.040164107 -5.7251624 9.6048617e-17 1.2603446
0.089122476 -0.05 -0.039586512 -5.7381786 -8.0005568e-16 1.2940469
0.08653489 -0.05 -0.039004268 -5.7497449 4.6018534e-17 1.3280288
0.08398751 -0.05 -0.03841742 -5.7615648 3.5025939e-16 1.36303
0.081479839 -0.05 -0.037825976 -5.7736818 6.9024886e-16 1.3990327
0.079011389 -0.05 -0.037229961 -5.788319 2.5075717e-16 1.4371875
0.076581716 -0.05 -0.036629252 -5.8035865 2.316744e-17 1.4766143
0.074190363 -0.05 -0.036023823 -5.8186815 -2.124838e-16 1.5168596
0.071836861 -0.05 -0.035413728 -5.8339047 -1.3227401e-16 1.5582689
0.069520765 -0.05 -0.03479897 -5.8497321 -4.9769527e-16 1.6012311
0.067241675 -0.05 -0.034179419 -5.864868 2.9938719e-16 1.645188
0.06499918 -0.05 -0.033555018 -5.8797462 -3.8852435e-16 1.690445
0.062792871 -0.05 -0.032925747 -5.8954361 -3.2818712e-16 1.7378147
0.060622375 -0.05 -0.032291499 -5.9103174 1.9092538e-16 1.7867335
0.058487326 -0.05 -0.031652174 -5.9230169 -1.0731826e-16 1.836613
0.056387364 -0.05 -0.031007697 -5.9329261 -3.9633337e-17 1.8874174
0.054322151 -0.05 -0.030357951 -5.9410431 -1.5147991e-16 1.9393122
0.052291341 -0.05 -0.029702887 -5.948976 -3.7052268e-16 1.9934986
0.050294648 -0.05 -0.029042305 -5.9578228 -4.4332247e-16 2.0507498
0.04833179 -0.05 -0.028376041 -5.9660566 -1.0018788e-15 2.1098881
0.046402466 -0.05 -0.027704019 -5.9741935 -1.5807318e-16 2.1717174
0.044506429 -0.05 -0.027026042 -5.9804658 1.768327e-16 2.2357671
0.042643454 -0.05 -0.026341918 -5.9848677 6.1415546e-16 2.3019629
0.040813356 -0.05 -0.025651359 -5.9845198 1.8151415e-16 2.3686829
0.039015944 -0.05 -0.024954167 -5.9785666 7.2472833e-16 2.4367977
0.037251029 -0.05 -0.024250182 -5.9697093 -6.3668109e-16 2.5091956
0.035518489 -0.05 -0.023539113 -5.9576151 4.0140676e-16 2.5846403
0.033818234 -0.05 -0.022820648 -5.9351436 2.6166699e-16 2.659266
0.032150201 -0.05 -0.022094471 -5.9009958 -8.8804891e-16 2.7324358
0.030514353 -0.05 -0.021360264 -5.8590101 -3.6428022e-16 2.8059483
0.028910697 -0.05 -0.020617674 -5.8175986 7.3651305e-17 2.8842432
0.027339307 -0.05 -0.019866272 -5.783976 5.8874174e-16 2.9697799
0.025800266 -0.05 -0.019105678 -5.7483396 -8.4907844e-16 3.0563897
0.024293746 -0.05 -0.018335416 -5.6902223 7.6713131e-16 3.1336337
0.022819976 -0.05 -0.017554976 -5.5898951 5.9596667e-16 3.1981261
0.021379238 -0.05 -0.01676386 -5.4416271 3.3658356e-16 3.2543368
0.019971939 -0.05 -0.015961456 -5.2409358 -6.0614817e-16 3.3055519
0.018598509 -0.05 -0.01514721 -5.0107528 9.8081041e-16 3.3602499
0.017259553 -0.05 -0.01432042 -4.7916225 -4.7710591e-16 3.436626
0.01595576 -0.05 -0.013480355 -4.5977619 4.2499506e-16 3.5508505
0.014687912 -0.05 -0.012626302 -4.420642 1.3224022e-15 3.7064979
0.013456987 -0.05 -0.011757453 -4.2651061 -8.2750049e-16 3.9008047
0.012264144 -0.05 -0.010872991 -4.1363359 -1.0184065e-15 4.1293993
0.011110735 -0.05 -0.0099720764 -4.0654525 -1.0580447e-16 4.3944097
0.009998348 -0.05 -0.009053772 -4.0587814 5.8220698e-16 4.6875642
0.0089287716 -0.05 -0.008117092 -4.0422761 2.1111931e-17 4.9529988
0.0079040995 -0.05 -0.0071612579 -3.9695022 -2.2812546e-16 5.1490397
0.0069268504 -0.05 -0.0061855236 -3.81685 1.1315502e-16 5.2667471
0.0059997943 -0.05 -0.0051889022 -3.5643272 8.3466027e-16 5.2950055
0.0051260135 -0.05 -0.0041707773 -3.225592 -1.9572549e-16 5.2029566
0.004309244 -0.05 -0.0031311181 -2.8208875 -3.0521439e-16 4.9762832
0.0035533672 -0.05 -0.0020696872 -2.3738523 -5.5683865e-16 4.6321864
0.0028624617 -0.05 -0.00098680698 -1.9102931 -3.2159513e-16 4.1578013
0.0022412163 -0.05 0.00011603595 -1.4520141 7.3511758e-17 3.5565174
0.0016941504 -0.05 0.0012372074 -1.0242597 -1.5517655e-16 2.8527454
0.0012255136 -0.05 0.0023740571 -0.65826496 -2.2821438e-16 2.0502646
0.00083908745 -0.05 0.0035224124 -0.38795316 7.400078e-17 1.1896765
0.00053779507 -0.05 0.004677767 -0.22060911 8.7615022e-17 0.57035561
0.00032320104 -0.05 0.0058347574 -0.14368778 3.3203018e-16 -0.0055132536
0.00019517537 -0.05 0.0069873265 -0.10698763 6.5221592e-17 -0.59137885
0.00015200882 -0.05 0.0081294655 -0.14084412 -2.2446643e-19 -1.3023255
0.99642593 -0.05 -0.026432846 -34.908832 3.7941221e-16 -3.8220137
0.99018537 -0.05 -0.027112016 -38.7825 -8.6139296e-16 -4.2160306
0.98394405 -0.05 -0.027784167 -39.579795 -7.9974727e-16 -4.2123107
0.97770197 -0.05 -0.028449328 -39.085287 -1.0285453e-15 -4.129138
0.97145917 -0.05 -0.029107604 -38.847067 1.2656547e-15 -4.0603873
0.96521566 -0.05 -0.029759156 -38.528908 -2.6067791e-16 -3.9859116
0.95897146 -0.05 -0.030403967 -38.219988 6.1042595e-16 -3.9123344
0.95272657 -0.05 -0.0310421 -37.900037 -4.3211966e-16 -3.8396342
0.94648102 -0.05 -0.031673711 -37.577311 6.6412045e-16 -3.7675695
0.94023481 -0.05 -0.032298886 -37.250706 1.4967334e-15 -3.6963694
0.93398797 -0.05 -0.032917629 -36.920645 -2.1262969e-16 -3.6254135
0.9277405 -0.05 -0.033530002 -36.587146 1.951456e-16 -3.5557355
0.92149241 -0.05 -0.034136081 -36.249 4.581549e-16 -3.4862819
0.91524372 -0.05 -0.034735901 -35.905493 3.9296078e-16 -3.4178136
0.90899445 -0.05 -0.035329616 -35.557692 -4.4743769e-16 -3.3499196
0.9027446 -0.05 -0.03591722 -35.206378 -9.9848284e-16 -3.2823209
0.89649418 -0.05 -0.036498748 -34.853676 -3.8681437e-16 -3.215823
0.89024323 -0.05 -0.037074337 -34.502935 4.5917655e-18 -3.1503964
0.88399171 -0.05 -0.037643998 -34.155957 -4.019589e-16 -3.0858024
0.87773966 -0.05 -0.038207677 -33.812809 -5.657363e-17 -3.0224948
0.87148708 -0.05 -0.038765511 -33.47311 -3.3231446e-16 -2.9610097
0.86523399 -0.05 -0.039317568 -33.135062 -6.2282071e-16 -2.9001388
0.8589804 -0.05 -0.039863822 -32.796993 -8.5409767e-16 -2.8403655
0.8527263 -0.05 -0.040404356 -32.457553 3.2106679e-16 -2.7814004
0.84647171 -0.05 -0.040939237 -32.115305 -4.251797e-16 -2.7229696
0.84021665 -0.05 -0.041468449 -31.768555 7.0683016e-17 -2.6646932
0.8339611 -0.05 -0.041991955 -31.416762 2.2704809e-16 -2.6069053
0.8277051 -0.05 -0.042509934 -31.06331 -7.1381578e-16 -2.5500508
0.82144864 -0.05 -0.043022344 -30.710525 2.6869187e-16 -2.4930665
0.81519172 -0.05 -0.043529141 -30.361493 3.8209657e-16 -2.4376232
0.80893435 -0.05 -0.044030402 -30.017377 -1.334569e-16 -2.3829721
0.80267654 -0.05 -0.044526138 -29.678128 -9.611114e-18 -2.3296813
0.79641831 -0.05 -0.04501638 -29.342896 -6.7524661e-16 -2.2771733
0.79015963 -0.05 -0.045501085 -29.009276 1.9771673e-16 -2.2256543
0.78390055 -0.05 -0.045980339 -28.674265 4.3050635e-16 -2.1749417
0.77764104 -0.05 -0.046454106 -28.333289 -5.308823e-17 -2.1241003
0.77138112 -0.05 -0.046922356 -27.984655 1.6168066e-16 -2.07357
0.76512079 -0.05 -0.047385149 -27.631431 -2.1310141e-16 -2.0230685
0.75886005 -0.05 -0.047842471 -27.279669 -2.2200368e-17 -1.9730562
0.75259893 -0.05 -0.048294314 -26.934723 -6.2186845e-16 -1.9239461
0.74633741 -0.05 -0.048740648 -26.597678 2.6114503e-16 -1.8759147
0.74007548 -0.05 -0.049181457 -26.267933 -1.3411952e-15 -1.8290099
0.73381318 -0.05 -0.04961673 -25.943206 -1.9622893e-16 -1.7831182
0.72755051 -0.05 -0.050046429 -25.618707 -7.4441255e-16 -1.7379817
0.72128744 -0.05 -0.050470587 -25.288983 6.9245409e-16 -1.693368
0.715024 -0.05 -0.050889236 -24.949481 -4.1047113e-16 -1.6484203
0.70876019 -0.05 -0.051302199 -24.599384 -2.8203645e-17 -1.6028063
0.70249601 -0.05 -0.051709529 -24.248371 -3.2657067e-16 -1.5578541
0.69623146 -0.05 -0.052111192 -23.905249 -1.3980819e-16 -1.5131375
0.68996654 -0.05 -0.052507093 -23.571816 2.7164549e-16 -1.4700135
0.68370127 -0.05 -0.052897289 -23.246618 -3.2057904e-16 -1.4277642
0.67743564 -0.05 -0.053281682 -22.927646 -2.0362815e-16 -1.3865628
0.67116966 -0.05 -0.053660284 -22.610603 4.9560196e-16 -1.346275
0.66490332 -0.05 -0.054032977 -22.285744 7.4826853e-16 -1.3060305
0.65863663 -0.05 -0.05439966 -21.94333 4.6375622e-16 -1.2656819
0.65236959 -0.05 -0.054760421 -21.582348 -4.6451397e-16 -1.224586
0.64610221 -0.05 -0.05511517 -21.215073 -2.4719736e-16 -1.1828291
0.63983448 -0.05 -0.055463742 -20.855405 4.0770646e-16 -1.1417628
0.63356641 -0.05 -0.055806106 -20.504757 -1.4182036e-16 -1.1018041
0.62729802 -0.05 -0.056142263 -20.16447 -8.2337429e-16 -1.0629632
0.62102928 -0.05 -0.056472075 -19.833183 -2.3175247e-16 -1.0253321
0.6147602 -0.05 -0.056795458 -19.505051 1.0053739e-15 -0.9891837
0.6084908 -0.05 -0.057112408 -19.166977 5.3235567e-16 -0.95330435
0.60222106 -0.05 -0.057422783 -18.801671 -1.5869008e-16 -0.91651816
0.595951 -0.05 -0.057726508 -18.413061 9.6286968e-17 -0.87884738
0.58968063 -0.05 -0.058023501 -18.027545 4.4733775e-16 -0.841253
0.58340992 -0.05 -0.058313671 -17.646507 2.7499896e-16 -0.80445682
0.5771389 -0.05 -0.058596901 -17.269236 -2.7447271e-16 -0.76775796
0.57086757 -0.05 -0.058873047 -16.896449 1.3346996e-17 -0.73164027
0.56459592 -0.05 -0.059142078 -16.530421 -1.5419088e-16 -0.69640917
0.55832397 -0.05 -0.05940387 -16.171177 4.3644841e-16 -0.66190592
0.55205171 -0.05 -0.059658261 -15.815822 1.4035975e-16 -0.6282281
0.54577917 -0.05 -0.059905181 -15.464729 -2.1050201e-16 -0.59540678
0.53950632 -0.05 -0.060144467 -15.117329 1.7233146e-16 -0.56318998
0.53323318 -0.05 -0.06037598 -14.773136 8.2531733e-17 -0.53187319
0.52695976 -0.05 -0.060599649 -14.432054 4.1685967e-16 -0.50122293
0.52068605 -0.05 -0.060815301 -14.09303 2.7515158e-16 -0.47120892
0.51441207 -0.05 -0.061022796 -13.756024 3.3107578e-16 -0.44190938
0.50813781 -0.05 -0.061221965 -13.423598 -3.1543483e-17 -0.41331157
0.5018633 -0.05 -0.061412671 -13.098782 1.6547997e-16 -0.38557352
0.49558854 -0.05 -0.061594791 -12.783193 6.4548441e-17 -0.35860242
0.48931352 -0.05 -0.061768127 -12.477782 -3.063578e-17 -0.33246861
0.48303826 -0.05 -0.061932474 -12.181634 -1.7159243e-16 -0.30716722
0.47676277 -0.05 -0.062087711 -11.895597 -1.3261147e-16 -0.28257251
0.47048706 -0.05 -0.062233698 -11.622615 1.5084879e-17 -0.25856913
0.46421113 -0.05 -0.062370185 -11.363745 -1.7652914e-16 -0.2353168
0.45793501 -0.05 -0.062496958 -11.118812 3.6531814e-17 -0.21293977
0.45165869 -0.05 -0.062613855 -10.885056 -1.1927758e-16 -0.19132397
0.44538218 -0.05 -0.062720693 -10.659882 3.4417373e-17 -0.17024926
0.43910552 -0.05 -0.062817246 -10.442268 1.0923695e-16 -0.14962728
0.43282869 -0.05 -0.062903273 -10.231494 4.388702e-17 -0.12946608
0.42655174 -0.05 -0.062978565 -10.027334 1.0935805e-16 -0.10984787
0.42027465 -0.05 -0.063042925 -9.8295989 -7.1259785e-17 -0.090856046
0.41399747 -0.05 -0.063096102 -9.6379828 -5.6576812e-18 -0.072210163
0.4077202 -0.05 -0.06313782 -9.451993 5.0398078e-17 -0.053709188
0.40144286 -0.05 -0.063167853 -9.2717337 7.2090517e-18 -0.033944496
0.39516548 -0.05 -0.063185918 -9.0970509 1.7881228e-18 -0.015192757
0.38888807 -0.05 -0.063191706 -8.9272528 3.2470149e-19 0.0029411856
0.38261067 -0.05 -0.063185003 -8.7624509 -6.1541076e-18 0.021160019
0.37633329 -0.05 -0.063165567 -8.6030253 -2.3326142e-17 0.039404571
0.37005597 -0.05 -0.063133003 -8.4482525 -6.842483e-17 0.055732577
0.36377873 -0.05 -0.06308699 -8.297788 4.1687189e-17 0.072320694
0.35750161 -0.05 -0.063027288 -8.1519757 -6.4433959e-17 0.088871849
0.35122464 -0.05 -0.062953559 -8.0106143 7.6880217e-17 0.10533036
0.34494785 -0.05 -0.062865451 -7.8735672 1.3836858e-16 0.12169189
0.33867128 -0.05 -0.062762575 -7.74073 9.3264147e-17 0.13791967
0.33239498 -0.05 -0.062644604 -7.6123096 5.1631684e-17 0.1540631
0.32611899 -0.05 -0.062511149 -7.4881632 -2.7715595e-17 0.17038924
0.31984336 -0.05 -0.062361784 -7.3675402 -9.1564563e-17 0.1866028
0.31356814 -0.05 -0.062196125 -7.2503022 -3.3669886e-16 0.20281502
0.30729338 -0.05 -0.062013757 -7.1405031 1.3787448e-16 0.21916718
0.30101914 -0.05 -0.061814247 -7.0883933 1.3692982e-16 0.23650468
0.29921986 -0.05 0.058326964 -7.2520668 -1.1078843e-16 0.23066403
0.29358558 -0.05 0.058509653 -7.5248005 1.3554956e-16 0.21968123
0.28803196 -0.05 0.058675149 -7.7312253 6.9568559e-17 0.20598858
0.28255786 -0.05 0.058823705 -7.9402768 1.1753124e-16 0.1903272
0.2771622 -0.05 0.058955625 -8.1484381 -1.7238243e-16 0.17338913
0.27184386 -0.05 0.059071243 -8.3572346 1.322607e-17 0.1550682
0.26660179 -0.05 0.059170874 -8.5660541 -1.65377e-16 0.13551858
0.26143493 -0.05 0.059254799 -8.7747139 7.0003517e-17 0.11478388
0.25634224 -0.05 0.059323344 -8.9829216 3.8233256e-17 0.093540972
0.25132267 -0.05 0.059376791 -9.190409 -7.3033039e-18 0.070627988
0.24637524 -0.05 0.059415359 -9.3959968 1.7730033e-17 0.042970713
0.24149894 -0.05 0.059439363 -9.6004794 1.7917819e-17 0.015574629
0.23669278 -0.05 0.059449081 -9.8022381 4.5392948e-18 -0.013776393
0.2319558 -0.05 0.059444808 -10.000635 -1.3900738e-17 -0.04497528
0.22728704 -0.05 0.059426824 -10.197171 1.9363146e-17 -0.076188524
0.22268556 -0.05 0.059395333 -10.392267 -1.1833348e-17 -0.10764823
0.21815043 -0.05 0.059350633 -10.586205 4.9413424e-18 -0.1409847
0.21368074 -0.05 0.059292979 -10.779012 -3.08698e-17 -0.17611339
0.20927558 -0.05 0.059222535 -10.969414 1.0314474e-16 -0.21320529
0.20493407 -0.05 0.059139598 -11.15785 -1.0024939e-16 -0.25195231
0.20065535 -0.05 0.059044413 -11.34445 8.6342167e-17 -0.29229269
0.19643852 -0.05 0.058937244 -11.52942 5.5947014e-17 -0.33411025
0.19228276 -0.05 0.058818322 -11.712858 1.8324727e-16 -0.37781415
0.18818722 -0.05 0.058687763 -11.893547 -1.7297477e-17 -0.42306024
0.18415108 -0.05 0.058545848 -12.071883 8.0984612e-17 -0.46961329
0.18017353 -0.05 0.058392798 -12.247698 7.5780093e-17 -0.5179761
0.17625376 -0.05 0.058228802 -12.420513 -1.0765821e-16 -0.56765544
0.17239098 -0.05 0.058054096 -12.590778 2.6697009e-16 -0.61905029
0.16858442 -0.05 0.057868869 -12.758152 2.6487235e-17 -0.67199325
0.16483331 -0.05 0.057673288 -12.922205 9.4668369e-17 -0.72670402
0.1611369 -0.05 0.057467507 -13.081982 3.616186e-16 -0.78272706
0.15749444 -0.05 0.05725178 -13.237983 1.5868867e-16 -0.84031194
0.15390519 -0.05 0.057026245 -13.389323 -2.4357409e-16 -0.89956452
0.15036846 -0.05 0.05679107 -13.53576 4.5614192e-17 -0.96016069
0.1468835 -0.05 0.056546431 -13.677793 2.1207078e-17 -1.022515
0.14344965 -0.05 0.056292446 -13.814993 7.1734378e-17 -1.0862992
0.14006619 -0.05 0.056029297 -13.948076 6.4334006e-17 -1.151627
0.13673247 -0.05 0.055757125 -14.077646 -1.0852645e-16 -1.2185228
0.13344779 -0.05 0.055476121 -14.205111 -2.9393496e-16 -1.2869825
0.13021151 -0.05 0.055186419 -14.331292 7.2823221e-17 -1.357566
0.127023 -0.05 0.054888068 -14.455539 -3.1118148e-16 -1.4295867
0.1238816 -0.05 0.054581274 -14.577018 -2.8058306e-16 -1.5030809
0.12078668 -0.05 0.054266178 -14.694831 -1.8436894e-16 -1.5786566
0.11773765 -0.05 0.05394282 -14.806176 3.3325341e-16 -1.6557316
0.1147339 -0.05 0.053611291 -14.909388 -3.0366896e-16 -1.734023
0.11177482 -0.05 0.053271744 -15.003034 8.9306882e-17 -1.8137593
0.10885985 -0.05 0.052924235 -15.086778 -2.2886495e-17 -1.8951218
0.1059884 -0.05 0.052568871 -15.162182 -4.6928619e-16 -1.977824
0.1031599 -0.05 0.052205832 -15.233489 1.1198918e-16 -2.0634862
0.1003738 -0.05 0.051835074 -15.302871 3.4961271e-16 -2.1520319
0.097629558 -0.05 0.051456673 -15.374507 -7.0511705e-16 -2.2432591
0.094926642 -0.05 0.051070787 -15.450681 -5.466196e-16 -2.3387352
0.092264538 -0.05 0.05067735 -15.531597 1.7611201e-16 -2.4379812
0.08964273 -0.05 0.050276443 -15.617575 -9.7537882e-17 -2.5404468
0.087060708 -0.05 0.049868148 -15.707332 5.2185845e-16 -2.6470538
0.084517981 -0.05 0.049452508 -15.799941 -4.167962e-16 -2.7575296
0.082014061 -0.05 0.04902958 -15.895841 -1.1156681e-15 -2.8732059
0.0795485 -0.05 0.048599272 -15.991807 -9.9341833e-17 -2.9928378
0.077120836 -0.05 0.048161592 -16.08753 8.5266925e-16 -3.116193
0.074730608 -0.05 0.047716625 -16.18424 4.9395354e-17 -3.2441059
0.07237737 -0.05 0.047264405 -16.282191 1.824551e-16 -3.3776298
0.070060716 -0.05 0.04680483 -16.379286 1.2403476e-16 -3.5160844
0.067780231 -0.05 0.046337873 -16.47503 -7.4021335e-16 -3.6593614
0.065535507 -0.05 0.045863542 -16.569907 -2.4183314e-16 -3.8084191
0.063326162 -0.05 0.045381755 -16.662119 -3.4089697e-16 -3.9630672
0.061151825 -0.05 0.044892439 -16.75008 -5.9670889e-18 -4.123043
0.059012132 -0.05 0.044395543 -16.832867 -2.6785945e-16 -4.2885386
0.056906737 -0.05 0.043890974 -16.909267 7.9102959e-16 -4.4595532
0.054835293 -0.05 0.04337871 -16.978526 -8.1798363e-16 -4.6371036
0.052797499 -0.05 0.042858566 -17.039044 9.0062425e-17 -4.8208662
0.050793063 -0.05 0.042330404 -17.088082 -4.3791733e-16 -5.0101229
0.04882168 -0.05 0.041794164 -17.128741 -1.4161655e-16 -5.206701
0.04688309 -0.05 0.04124967 -17.159656 -6.4997726e-16 -5.4104603
0.044977052 -0.05 0.040696743 -17.180498 -3.4482996e-16 -5.6220568
0.043103366 -0.05 0.040135113 -17.188902 -9.160611e-16 -5.8402878
0.041261826 -0.05 0.039564592 -17.184793 4.4692113e-16 -6.0653699
0.039452231 -0.05 0.038985034 -17.169281 -4.4766602e-16 -6.2992172
0.03767444 -0.05 0.038396158 -17.141023 3.1625514e-17 -6.5419027
0.035928342 -0.05 0.03779766 -17.09815 4.016726e-16 -6.7929056
0.034213852 -0.05 0.037189228 -17.039384 -8.4302423e-17 -7.0521893
0.03253091 -0.05 0.036570548 -16.962792 4.4335319e-16 -7.3228689
0.0308795 -0.05 0.035941265 -16.870789 8.2529113e-16 -7.6052753
0.029259663 -0.05 0.035300949 -16.758005 3.2608398e-16 -7.888751
0.027671461 -0.05 0.034649215 -16.623232 9.1415811e-16 -8.1832319
0.026115026 -0.05 0.033985572 -16.466609 -4.1153784e-16 -8.4874357
0.024590555 -0.05 0.033309501 -16.284711 2.6847065e-16 -8.8004843
0.023098294 -0.05 0.032620482 -16.076147 -3.6658629e-16 -9.1206692
0.021638607 -0.05 0.031917877 -15.838059 -2.7060968e-16 -9.4458186
0.020211883 -0.05 0.031201104 -15.568321 -1.1096985e-15 -9.7761729
0.018818676 -0.05 0.03046942 -15.264303 -7.1347783e-16 -10.107423
0.017459625 -0.05 0.029722048 -14.921258 2.7870071e-16 -10.436311
0.01613546 -0.05 0.028958222 -14.53815 -7.618567e-16 -10.758809
0.014847098 -0.05 0.028177068 -14.111127 2.4982956e-16 -11.069923
0.01359564 -0.05 0.027377693 -13.639067 2.6549147e-16 -11.363309
0.012382377 -0.05 0.026559161 -13.118987 -5.7279356e-16 -11.633521
0.011208829 -0.05 0.025720429 -12.546796 8.2842797e-17 -11.872419
0.010076709 -0.05 0.02486039 -11.91349 -6.1595598e-16 -12.071888
0.0089880534 -0.05 0.023978119 -11.214866 4.5364965e-17 -12.218786
0.0079453218 -0.05 0.023072701 -10.449993 1.6289921e-16 -12.296287
0.0069512094 -0.05 0.022142954 -9.6175906 1.2201383e-16 -12.282558
0.006008748 -0.05 0.021188052 -8.7196712 -7.5873402e-17 -12.168238
0.0051216625 -0.05 0.020207704 -7.7698339 -2.9324977e-17 -11.935553
0.0042938084 -0.05 0.019201402 -6.7742901 6.8816253e-16 -11.560899
0.0035292769 -0.05 0.018169185 -5.7550025 2.4386694e-16 -11.028158
0.0028328488 -0.05 0.017112211 -4.7391057 3.4720149e-16 -10.329024
0.0022091461 -0.05 0.016031793 -3.7541505 6.8544098e-17 -9.4581088
0.0016625926 -0.05 0.014930282 -2.8304977 -4.1134705e-16 -8.425598
0.0011972506 -0.05 0.013811576 -1.9974562 -6.1673942e-16 -7.263296
0.0008163497 -0.05 0.012679969 -1.2862877 -1.0414134e-16 -6.01614
0.00052182349 -0.05 0.011540701 -0.76595133 -1.0354154e-16 -4.7411907
0.00031396355 -0.05 0.010399824 -0.43018156 -8.1652498e-17 -3.4885521
0.00019148257 -0.05 0.0092634511 -0.23167285 -5.9811337e-17 -2.3064463
0.99645722 -0.05 -0.025534038 0.046856339 -2.7312854e-16 0.22553993
0.99027899 -0.05 -0.024422574 0.017241791 -7.2315178e-16 -0.0022879529
0.9840995 -0.05 -0.023318058 0.015516854 8.8724979e-16 -0.0021316823
0.9779188 -0.05 -0.022220463 0.0065969467 -1.0718489e-16 -0.00057402169
0.97173688 -0.05 -0.021129686 0.011050399 -7.6852133e-16 -0.0013419906
0.96555379 -0.05 -0.020045567 0.0090346479 -9.8759794e-16 -0.00096149559
0.95936953 -0.05 -0.018968125 0.010052919 -1.1508458e-15 -0.0011692298
0.95318413 -0.05 -0.017897296 0.0097135313 -2.6592672e-16 -0.0010662344
0.94699762 -0.05 -0.016832927 0.010024424 -6.1196915e-17 -0.0011436896
0.94081 -0.05 -0.015774935 0.010080649 -1.7604991e-16 -0.001123693
0.93462131 -0.05 -0.014723313 0.010303204 5.3023355e-16 -0.0011598564
0.92843155 -0.05 -0.013678003 0.010465945 -2.0835266e-16 -0.0011888705
0.92224073 -0.05 -0.012638929 0.010773908 -1.9120122e-16 -0.0012081775
0.91604887 -0.05 -0.011606056 0.010813237 -1.0455455e-16 -0.001149106
0.909856 -0.05 -0.010579235 0.010934505 1.4710552e-16 -0.0011920626
0.90366214 -0.05 -0.0095584673 0.011140679 -9.3885327e-16 -0.0011787641
0.89746729 -0.05 -0.0085437226 0.011614305 -1.0458423e-16 -0.0011917565
0.89127149 -0.05 -0.0075348654 0.012042989 -1.2197589e-16 -0.0012166848
0.88507472 -0.05 -0.0065318825 0.012476552 -1.7899363e-16 -0.0012033554
0.87887699 -0.05 -0.0055348303 0.012908534 -2.5497966e-16 -0.0011390879
0.87267834 -0.05 -0.0045435724 0.015424362 -1.3952725e-16 -0.0011721767
0.86647878 -0.05 -0.0035580411 0.018576884 -1.7041328e-17 -0.001810795
0.86027829 -0.05 -0.0025782651 0.017868822 -2.9457393e-16 -0.0021091765
0.85407692 -0.05 -0.0016041584 0.015869349 4.0651818e-16 -0.0017169342
0.84787467 -0.05 -0.00063565908 0.016465188 -7.4409719e-17 -0.0018151167
0.84167155 -0.05 0.00032721917 0.013888326 -1.453113e-17 -0.0014658082
0.83546755 -0.05 0.00128444 0.013862656 5.9668462e-17 -0.001364451
0.8292627 -0.05 0.002236178 0.012628106 -1.1604657e-16 -0.0011369994
0.82305701 -0.05 0.0031823929 0.010617104 9.9243289e-16 -0.00082718236
0.81685048 -0.05 0.0041230384 0.0080334701 -6.5385141e-16 -0.00044372869
0.81064312 -0.05 0.0050581935 0.0048965116 5.8614479e-16 2.0105684e-05
0.80443493 -0.05 0.0059878674 0.0011966517 -1.3442129e-16 0.00055855199
0.79822593 -0.05 0.0069120918 -0.0031251211 8.4499783e-17 0.0011077212
0.7920161 -0.05 0.0078308212 -0.0072183401 -3.944703e-16 0.0016543558
0.78580549 -0.05 0.0087441421 -0.011092527 -6.3022974e-16 0.002220967
0.77959408 -0.05 0.0096520189 -0.01546669 -7.2708828e-16 0.0028463273
0.77338187 -0.05 0.01055442 -0.020358475 8.746008e-16 0.0035367976
0.76716888 -0.05 0.011451407 -0.025820894 1.082281e-16 0.0043000785
0.7609551 -0.05 0.012342964 -0.03187473 1.4460568e-16 0.0051347544
0.75474054 -0.05 0.013229081 -0.038580709 6.2107543e-16 0.0060480703
0.74852521 -0.05 0.014109732 -0.046011622 -6.9054039e-17 0.0070449246
0.7423091 -0.05 0.014984898 -0.05429273 4.7851695e-16 0.0081390853
0.73609222 -0.05 0.015854567 -0.063577038 3.3993662e-16 0.0093490446
0.72987457 -0.05 0.016718703 -0.073921417 -5.1355859e-16 0.010685076
0.72365617 -0.05 0.017577339 -0.085388692 -8.0689412e-16 0.012153428
0.71743701 -0.05 0.018430504 -0.098074822 3.7953833e-16 0.013759379
0.71121707 -0.05 0.019278024 -0.11186032 -4.0495238e-16 0.015495173
0.70499637 -0.05 0.020119949 -0.12680779 -4.0173548e-16 0.017352314
0.69877492 -0.05 0.020956246 -0.14298615 -1.2152899e-15 0.019349034
0.6925527 -0.05 0.021786821 -0.16031986 1.2333373e-16 0.021461765
0.68632972 -0.05 0.02261173 -0.1790727 -1.0979528e-16 0.023758154
0.68010598 -0.05 0.023430875 -0.19954733 1.1292327e-15 0.026264444
0.6738815 -0.05 0.024244267 -0.22267668 -6.5316879e-16 0.028973936
0.66765624 -0.05 0.02505179 -0.24753204 1.2181893e-15 0.031888557
0.66143021 -0.05 0.025853342 -0.27395715 -4.0107985e-16 0.03496028
0.65520343 -0.05 0.026649008 -0.30224634 9.2304101e-16 0.03820677
0.64897589 -0.05 0.027438702 -0.33247615 -1.1923388e-16 0.04163154
0.64274758 -0.05 0.028222259 -0.36451156 4.2053132e-17 0.045219198
0.63651849 -0.05 0.028999645 -0.39844863 -8.4651217e-16 0.048978402
0.63028863 -0.05 0.029770863 -0.43446107 -5.4151075e-18 0.0529103
0.624058 -0.05 0.030535776 -0.47266474 -1.3808883e-16 0.057022352
0.61782658 -0.05 0.031294297 -0.51307071 -4.2537686e-16 0.061318645
0.61159439 -0.05 0.032046426 -0.55588298 -1.6008411e-16 0.065808878
0.60536141 -0.05 0.032792015 -0.60095231 2.2768066e-16 0.070469985
0.59912765 -0.05 0.033530996 -0.64843722 -4.5864571e-16 0.075307089
0.5928931 -0.05 0.034263282 -0.6985768 8.8586129e-17 0.080329974
0.58665775 -0.05 0.034988784 -0.75143712 9.0612492e-17 0.085546469
0.5804216 -0.05 0.035707386 -0.80701054 4.5397025e-16 0.090938221
0.57418465 -0.05 0.036418943 -0.86515848 -2.8702569e-17 0.096498778
0.56794691 -0.05 0.037123422 -0.9263766 1.8520587e-16 0.102254
0.56170834 -0.05 0.037820701 -0.99079366 2.8749688e-16 0.10818596
0.55546895 -0.05 0.03851062 -1.0581858 -5.7664794e-16 0.11427918
0.54922875 -0.05 0.039193105 -1.1285291 7.3375625e-16 0.12052153
0.54298773 -0.05 0.039867996 -1.2018319 5.6506496e-16 0.12691899
0.53674587 -0.05 0.040535153 -1.2797367 -1.0869135e-15 0.13381225
0.53050318 -0.05 0.041194504 -1.3687683 -4.9819201e-17 0.14181333
0.52425966 -0.05 0.041845879 -1.4706439 2.1586945e-17 0.15052513
0.51801529 -0.05 0.042489134 -1.5753649 1.2030988e-15 0.15868826
0.51177007 -0.05 0.043124103 -1.6794371 1.5231544e-16 0.16619003
0.50552401 -0.05 0.043750648 -1.785192 4.9913272e-16 0.17400654
0.4992771 -0.05 0.044368644 -1.8946128 -2.1809577e-16 0.18208997
0.49302933 -0.05 0.044977894 -2.0077787 -1.4117565e-16 0.19013771
0.48678068 -0.05 0.045578196 -2.1244237 -9.6588885e-17 0.19815361
0.48053117 -0.05 0.046169424 -2.2443165 2.2918311e-16 0.20610676
0.4742808 -0.05 0.046751441 -2.3680137 2.2492389e-16 0.21394637
0.46802956 -0.05 0.047323996 -2.4956026 -5.9674811e-17 0.22165818
0.46177744 -0.05 0.047886874 -2.6269355 5.5054219e-16 0.22924337
0.45552444 -0.05 0.048439913 -2.7616962 3.1772218e-16 0.23665408
0.44927056 -0.05 0.048982931 -2.8998584 -2.562195e-16 0.24382494
0.44301579 -0.05 0.049515699 -3.0417123 -3.3694921e-16 0.2507159
0.43676015 -0.05 0.050037979 -3.1875544 -5.1261145e-16 0.2573339
0.43050362 -0.05 0.050549559 -3.3371743 9.6469531e-17 0.2636583
0.4242462 -0.05 0.051050241 -3.4903505 1.0537113e-16 0.26962624
0.41798792 -0.05 0.051539775 -3.646888 -3.2388108e-16 0.27514864
0.41172874 -0.05 0.052017883 -3.807089 1.4472718e-16 0.28020234
0.40546868 -0.05 0.05248434 -3.971502 -2.204862e-16 0.28479864
0.39920776 -0.05 0.05293886 -4.1399163 -1.4021981e-16 0.28883989
0.39294595 -0.05 0.053381135 -4.3114791 -4.6247635e-16 0.29230208
0.38668328 -0.05 0.053810949 -4.4864386 6.1128195e-16 0.29514569
0.38041973 -0.05 0.05422806 -4.6655241 -2.4041842e-16 0.29726748
0.37415534 -0.05 0.05463207 -4.8487249 1.0379085e-16 0.29858321
0.3678901 -0.05 0.055022657 -5.0354545 -7.430823e-17 0.2991697
0.36162402 -0.05 0.05539958 -5.225926 2.6203698e-16 0.29888607
0.3553571 -0.05 0.055762501 -5.41991 2.3980425e-16 0.29765675
0.34908939 -0.05 0.056111064 -5.6176779 1.784073e-16 0.29537902
0.34282086 -0.05 0.056444879 -5.8196379 1.3468955e-16 0.29202702
0.33655155 -0.05 0.056763618 -6.0258516 1.6087922e-16 0.28759168
0.33028147 -0.05 0.057066888 -6.2359139 1.6005324e-16 0.28187493
0.32401065 -0.05 0.057354263 -6.4491889 -7.4378794e-18 0.2748935
0.3177391 -0.05 0.057625354 -6.6666785 -8.1189001e-18 0.26660337
0.31146685 -0.05 0.057879744 -6.8879458 2.6146414e-17 0.25723358
0.30519392 -0.05 0.058116996 -7.054436 2.50256e-16 0.24427244
