# yPlus  FACE_DATA 448
# x y z  yPlus
0.29504494 -0.05 -0.061608298 22.885647
0.2894116 -0.05 -0.061398763 22.468379
0.28385991 -0.05 -0.061177687 22.243301
0.27838874 -0.05 -0.060945241 22.01663
0.27299695 -0.05 -0.060701652 21.802529
0.26768346 -0.05 -0.06044718 21.597414
0.26244714 -0.05 -0.060182061 21.401755
0.25728695 -0.05 -0.059906503 21.214472
0.25220182 -0.05 -0.059620761 21.035564
0.24719069 -0.05 -0.059325041 20.864814
0.24225256 -0.05 -0.059019496 20.701039
0.23738639 -0.05 -0.058704367 20.544055
0.23259119 -0.05 -0.058379863 20.393169
0.22786597 -0.05 -0.058046214 20.247212
0.22320976 -0.05 -0.05770363 20.107721
0.21862161 -0.05 -0.05735225 19.973865
0.21410056 -0.05 -0.056992307 19.845787
0.2096457 -0.05 -0.056623991 19.724223
0.2052561 -0.05 -0.056247404 19.607722
0.20093087 -0.05 -0.055862781 19.496666
0.19666912 -0.05 -0.055470304 19.390907
0.19246995 -0.05 -0.055070176 19.290533
0.18833252 -0.05 -0.05466257 19.196186
0.18425597 -0.05 -0.054247543 19.106321
0.18023946 -0.05 -0.053825317 19.021463
0.17628219 -0.05 -0.053396058 18.942362
0.17238331 -0.05 -0.052959897 18.867347
0.16854203 -0.05 -0.052517015 18.797512
0.16475756 -0.05 -0.052067546 18.731516
0.16102913 -0.05 -0.051611603 18.669606
0.15735597 -0.05 -0.05114929 18.610754
0.15373733 -0.05 -0.050680805 18.556105
0.15017246 -0.05 -0.050206238 18.505945
0.14666063 -0.05 -0.049725705 18.459567
0.14320113 -0.05 -0.049239331 18.41793
0.13979324 -0.05 -0.048747186 18.379633
0.13643627 -0.05 -0.048249405 18.344575
0.13312954 -0.05 -0.047746079 18.312692
0.12987236 -0.05 -0.047237355 18.283909
0.12666407 -0.05 -0.046723319 18.258584
0.12350402 -0.05 -0.046203977 18.234939
0.12039155 -0.05 -0.045679487 18.214388
0.11732603 -0.05 -0.045149948 18.198469
0.11430687 -0.05 -0.044615356 18.184995
0.11133343 -0.05 -0.044075764 18.173095
0.10840513 -0.05 -0.04353128 18.163018
0.10552138 -0.05 -0.042981918 18.155076
0.10268159 -0.05 -0.042427748 18.148253
0.099885176 -0.05 -0.041868906 18.146363
0.0971316 -0.05 -0.041305314 18.14828
0.09442032 -0.05 -0.040737007 18.151534
0.091750779 -0.05 -0.040164107 18.157209
0.089122476 -0.05 -0.039586512 18.162707
0.08653489 -0.05 -0.039004268 18.165671
0.08398751 -0.05 -0.03841742 18.170467
0.081479839 -0.05 -0.037825976 18.175672
0.079011389 -0.05 -0.037229961 18.186446
0.076581716 -0.05 -0.036629252 18.199134
0.074190363 -0.05 -0.036023823 18.212096
0.071836861 -0.05 -0.035413728 18.225487
0.069520765 -0.05 -0.03479897 18.241007
0.067241675 -0.05 -0.034179419 18.256703
0.06499918 -0.05 -0.033555018 18.27248
0.062792871 -0.05 -0.032925747 18.290868
0.060622375 -0.05 -0.032291499 18.309489
0.058487326 -0.05 -0.031652174 18.325947
0.056387364 -0.05 -0.031007697 18.339348
0.054322151 -0.05 -0.030357951 18.351644
0.052291341 -0.05 -0.029702887 18.364726
0.050294648 -0.05 -0.029042305 18.383176
0.04833179 -0.05 -0.028376041 18.401103
0.046402466 -0.05 -0.027704019 18.422194
0.044506429 -0.05 -0.027026042 18.442785
0.042643454 -0.05 -0.026341918 18.464129
0.040813356 -0.05 -0.025651359 18.481742
0.039015944 -0.05 -0.024954167 18.494252
0.037251029 -0.05 -0.024250182 18.507377
0.035518489 -0.05 -0.023539113 18.521589
0.033818234 -0.05 -0.022820648 18.524774
0.032150201 -0.05 -0.022094471 18.516401
0.030514353 -0.05 -0.021360264 18.501876
0.028910697 -0.05 -0.020617674 18.496928
0.027339307 -0.05 -0.019866272 18.511735
0.025800266 -0.05 -0.019105678 18.53026
0.024293746 -0.05 -0.018335416 18.522937
0.022819976 -0.05 -0.017554976 18.461747
0.021379238 -0.05 -0.01676386 18.344013
0.019971939 -0.05 -0.015961456 18.167069
0.018598509 -0.05 -0.01514721 17.963386
0.017259553 -0.05 -0.01432042 17.805528
0.01595576 -0.05 -0.013480355 17.725841
0.014687912 -0.05 -0.012626302 17.726141
0.013456987 -0.05 -0.011757453 17.812659
0.012264144 -0.05 -0.010872991 17.993474
0.011110735 -0.05 -0.0099720764 18.305806
0.009998348 -0.05 -0.009053772 18.749919
0.0089287716 -0.05 -0.008117092 19.183161
0.0079040995 -0.05 -0.0071612579 19.514699
0.0069268504 -0.05 -0.0061855236 19.710237
0.0059997943 -0.05 -0.0051889022 19.73564
0.0051260135 -0.05 -0.0041707773 19.54806
0.004309244 -0.05 -0.0031311181 19.128236
0.0035533672 -0.05 -0.0020696872 18.4798
0.0028624617 -0.05 -0.00098680698 17.551865
0.0022412163 -0.05 0.00011603595 16.288201
0.0016941504 -0.05 0.0012372074 14.645643
0.0012255136 -0.05 0.0023740571 12.478489
0.00083908745 -0.05 0.0035224124 9.571726
0.00053779507 -0.05 0.004677767 6.6904861
0.00032320104 -0.05 0.0058347574 2.3512461
0.00019517537 -0.05 0.0069873265 6.6389892
0.00015200882 -0.05 0.0081294655 9.8533466
0.99642593 -0.05 -0.026432846 43.602961
0.99018537 -0.05 -0.027112016 53.704074
0.98394405 -0.05 -0.027784167 54.146607
0.97770197 -0.05 -0.028449328 53.80952
0.97145917 -0.05 -0.029107604 53.647482
0.96521566 -0.05 -0.029759156 53.42765
0.95897146 -0.05 -0.030403967 53.214053
0.95272657 -0.05 -0.0310421 52.991305
0.94648102 -0.05 -0.031673711 52.765893
0.94023481 -0.05 -0.032298886 52.536822
0.93398797 -0.05 -0.032917629 52.304347
0.9277405 -0.05 -0.033530002 52.068177
0.92149241 -0.05 -0.034136081 51.828173
0.91524372 -0.05 -0.034735901 51.58298
0.90899445 -0.05 -0.035329616 51.333321
0.9027446 -0.05 -0.03591722 51.080149
0.89649418 -0.05 -0.036498748 50.824484
0.89024323 -0.05 -0.037074337 50.56872
0.88399171 -0.05 -0.037643998 50.314735
0.87773966 -0.05 -0.038207677 50.062496
0.87148708 -0.05 -0.038765511 49.81125
0.86523399 -0.05 -0.039317568 49.560048
0.8589804 -0.05 -0.039863822 49.30743
0.8527263 -0.05 -0.040404356 49.052721
0.84647171 -0.05 -0.040939237 48.794367
0.84021665 -0.05 -0.041468449 48.531233
0.8339611 -0.05 -0.041991955 48.262955
0.8277051 -0.05 -0.042509934 47.99159
0.82144864 -0.05 -0.043022344 47.71936
0.81519172 -0.05 -0.043529141 47.448153
0.80893435 -0.05 -0.044030402 47.179462
0.80267654 -0.05 -0.044526138 46.912818
0.79641831 -0.05 -0.04501638 46.648075
0.79015963 -0.05 -0.045501085 46.38308
0.78390055 -0.05 -0.045980339 46.115205
0.77764104 -0.05 -0.046454106 45.841197
0.77138112 -0.05 -0.046922356 45.559014
0.76512079 -0.05 -0.047385149 45.271486
0.75886005 -0.05 -0.047842471 44.983231
0.75259893 -0.05 -0.048294314 44.698512
0.74633741 -0.05 -0.048740648 44.418827
0.74007548 -0.05 -0.049181457 44.143393
0.73381318 -0.05 -0.04961673 43.870268
0.72755051 -0.05 -0.050046429 43.595689
0.72128744 -0.05 -0.050470587 43.314812
0.715024 -0.05 -0.050889236 43.023839
0.70876019 -0.05 -0.051302199 42.721858
0.70249601 -0.05 -0.051709529 42.416486
0.69623146 -0.05 -0.052111192 42.115999
0.68996654 -0.05 -0.052507093 41.821779
0.68370127 -0.05 -0.052897289 41.532927
0.67743564 -0.05 -0.053281682 41.247649
0.67116966 -0.05 -0.053660284 40.962008
0.66490332 -0.05 -0.054032977 40.667449
0.65863663 -0.05 -0.05439966 40.354486
0.65236959 -0.05 -0.054760421 40.021923
0.64610221 -0.05 -0.05511517 39.680677
0.63983448 -0.05 -0.055463742 39.34356
0.63356641 -0.05 -0.055806106 39.012062
0.62729802 -0.05 -0.056142263 38.68753
0.62102928 -0.05 -0.056472075 38.36902
0.6147602 -0.05 -0.056795458 38.050952
0.6084908 -0.05 -0.057112408 37.720573
0.60222106 -0.05 -0.057422783 37.360324
0.595951 -0.05 -0.057726508 36.973243
0.58968063 -0.05 -0.058023501 36.585205
0.58340992 -0.05 -0.058313671 36.197523
0.5771389 -0.05 -0.058596901 35.80961
0.57086757 -0.05 -0.058873047 35.422003
0.56459592 -0.05 -0.059142078 35.037277
0.55832397 -0.05 -0.05940387 34.655513
0.55205171 -0.05 -0.059658261 34.273838
0.54577917 -0.05 -0.059905181 33.892456
0.53950632 -0.05 -0.060144467 33.510884
0.53323318 -0.05 -0.06037598 33.128422
0.52695976 -0.05 -0.060599649 32.745047
0.52068605 -0.05 -0.060815301 32.359465
0.51441207 -0.05 -0.061022796 31.971517
0.50813781 -0.05 -0.061221965 31.584231
0.5018633 -0.05 -0.061412671 31.201187
0.49558854 -0.05 -0.061594791 30.824462
0.48931352 -0.05 -0.061768127 30.455474
0.48303826 -0.05 -0.061932474 30.093342
0.47676277 -0.05 -0.062087711 29.73943
0.47048706 -0.05 -0.062233698 29.397693
0.46421113 -0.05 -0.062370185 29.070162
0.45793501 -0.05 -0.062496958 28.756845
0.45165869 -0.05 -0.062613855 28.454622
0.44538218 -0.05 -0.062720693 28.160235
0.43910552 -0.05 -0.062817246 27.872798
0.43282869 -0.05 -0.062903273 27.591454
0.42655174 -0.05 -0.062978565 27.316252
0.42027465 -0.05 -0.063042925 27.046944
0.41399747 -0.05 -0.063096102 26.783495
0.4077202 -0.05 -0.06313782 26.525178
0.40144286 -0.05 -0.063167853 26.272537
0.39516548 -0.05 -0.063185918 26.025045
0.38888807 -0.05 -0.063191706 25.782305
0.38261067 -0.05 -0.063185003 25.544347
0.37633329 -0.05 -0.063165567 25.312164
0.37005597 -0.05 -0.063133003 25.084237
0.36377873 -0.05 -0.06308699 24.860948
0.35750161 -0.05 -0.063027288 24.642436
0.35122464 -0.05 -0.062953559 24.428847
0.34494785 -0.05 -0.062865451 24.219805
0.33867128 -0.05 -0.062762575 24.01559
0.33239498 -0.05 -0.062644604 23.816401
0.32611899 -0.05 -0.062511149 23.622325
0.31984336 -0.05 -0.062361784 23.432083
0.31356814 -0.05 -0.062196125 23.245883
0.30729338 -0.05 -0.062013757 23.071452
0.30101914 -0.05 -0.061814247 23.089879
0.29921986 -0.05 0.058326964 23.040542
0.29358558 -0.05 0.058509653 23.447861
0.28803196 -0.05 0.058675149 23.655162
0.28255786 -0.05 0.058823705 23.86106
0.2771622 -0.05 0.058955625 24.061176
0.27184386 -0.05 0.059071243 24.258455
0.26660179 -0.05 0.059170874 24.451952
0.26143493 -0.05 0.059254799 24.642039
0.25634224 -0.05 0.059323344 24.828127
0.25132267 -0.05 0.059376791 25.01057
0.24637524 -0.05 0.059415359 25.187971
0.24149894 -0.05 0.059439363 25.361113
0.23669278 -0.05 0.059449081 25.528409
0.2319558 -0.05 0.059444808 25.689476
0.22728704 -0.05 0.059426824 25.846149
0.22268556 -0.05 0.059395333 25.999564
0.21815043 -0.05 0.059350633 26.15013
0.21368074 -0.05 0.059292979 26.298311
0.20927558 -0.05 0.059222535 26.442538
0.20493407 -0.05 0.059139598 26.583466
0.20065535 -0.05 0.059044413 26.721392
0.19643852 -0.05 0.058937244 26.856608
0.19228276 -0.05 0.058818322 26.989635
0.18818722 -0.05 0.058687763 27.11908
0.18415108 -0.05 0.058545848 27.245324
0.18017353 -0.05 0.058392798 27.368823
0.17625376 -0.05 0.058228802 27.48846
0.17239098 -0.05 0.058054096 27.605412
0.16858442 -0.05 0.057868869 27.718905
0.16483331 -0.05 0.057673288 27.82924
0.1611369 -0.05 0.057467507 27.93494
0.15749444 -0.05 0.05725178 28.036646
0.15390519 -0.05 0.057026245 28.134184
0.15036846 -0.05 0.05679107 28.22666
0.1468835 -0.05 0.056546431 28.315184
0.14344965 -0.05 0.056292446 28.399074
0.14006619 -0.05 0.056029297 28.47915
0.13673247 -0.05 0.055757125 28.556644
0.13344779 -0.05 0.055476121 28.632032
0.13021151 -0.05 0.055186419 28.707196
0.127023 -0.05 0.054888068 28.781131
0.1238816 -0.05 0.054581274 28.852468
0.12078668 -0.05 0.054266178 28.921092
0.11773765 -0.05 0.05394282 28.984142
0.1147339 -0.05 0.053611291 29.039955
0.11177482 -0.05 0.053271744 29.08679
0.10885985 -0.05 0.052924235 29.125751
0.1059884 -0.05 0.052568871 29.15648
0.1031599 -0.05 0.052205832 29.184432
0.1003738 -0.05 0.051835074 29.212507
0.097629558 -0.05 0.051456673 29.242556
0.094926642 -0.05 0.051070787 29.278152
0.092264538 -0.05 0.05067735 29.320591
0.08964273 -0.05 0.050276443 29.367056
0.087060708 -0.05 0.049868148 29.419157
0.084517981 -0.05 0.049452508 29.473502
0.082014061 -0.05 0.04902958 29.533158
0.0795485 -0.05 0.048599272 29.594257
0.077120836 -0.05 0.048161592 29.655907
0.074730608 -0.05 0.047716625 29.718569
0.07237737 -0.05 0.047264405 29.784138
0.070060716 -0.05 0.04680483 29.851019
0.067780231 -0.05 0.046337873 29.917314
0.065535507 -0.05 0.045863542 29.984655
0.063326162 -0.05 0.045381755 30.051953
0.061151825 -0.05 0.044892439 30.117448
0.059012132 -0.05 0.044395543 30.180445
0.056906737 -0.05 0.043890974 30.240694
0.054835293 -0.05 0.04337871 30.296345
0.052797499 -0.05 0.042858566 30.350371
0.050793063 -0.05 0.042330404 30.395589
0.04882168 -0.05 0.041794164 30.439245
0.04688309 -0.05 0.04124967 30.478628
0.044977052 -0.05 0.040696743 30.516002
0.043103366 -0.05 0.040135113 30.549572
0.041261826 -0.05 0.039564592 30.578023
0.039452231 -0.05 0.038985034 30.603902
0.03767444 -0.05 0.038396158 30.629535
0.035928342 -0.05 0.03779766 30.651823
0.034213852 -0.05 0.037189228 30.671121
0.03253091 -0.05 0.036570548 30.68764
0.0308795 -0.05 0.035941265 30.710199
0.029259663 -0.05 0.035300949 30.725328
0.027671461 -0.05 0.034649215 30.737822
0.026115026 -0.05 0.033985572 30.753459
0.024590555 -0.05 0.033309501 30.768035
0.023098294 -0.05 0.032620482 30.783489
0.021638607 -0.05 0.031917877 30.799811
0.020211883 -0.05 0.031201104 30.813743
0.018818676 -0.05 0.03046942 30.832473
0.017459625 -0.05 0.029722048 30.844967
0.01613546 -0.05 0.028958222 30.858558
0.014847098 -0.05 0.028177068 30.865849
0.01359564 -0.05 0.027377693 30.869834
0.012382377 -0.05 0.026559161 30.863676
0.011208829 -0.05 0.025720429 30.848497
0.010076709 -0.05 0.02486039 30.808044
0.0089880534 -0.05 0.023978119 30.734442
0.0079453218 -0.05 0.023072701 30.614564
0.0069512094 -0.05 0.022142954 30.431629
0.006008748 -0.05 0.021188052 30.159723
0.0051216625 -0.05 0.020207704 29.78989
0.0042938084 -0.05 0.019201402 29.279444
0.0035292769 -0.05 0.018169185 28.595364
0.0028328488 -0.05 0.017112211 27.703657
0.0022091461 -0.05 0.016031793 26.56136
0.0016625926 -0.05 0.014930282 25.124603
0.0011972506 -0.05 0.013811576 23.373835
0.0008163497 -0.05 0.012679969 21.302431
0.00052182349 -0.05 0.011540701 18.918431
0.00031396355 -0.05 0.010399824 16.207123
0.00019148257 -0.05 0.0092634511 13.134025
0.99645722 -0.05 -0.025534038 4.1700141
0.99027899 -0.05 -0.024422574 1.1384822
0.9840995 -0.05 -0.023318058 1.0813301
0.9779188 -0.05 -0.022220463 0.7017749
0.97173688 -0.05 -0.021129686 0.91054761
0.96555379 -0.05 -0.020045567 0.82251549
0.95936953 -0.05 -0.018968125 0.86807041
0.95318413 -0.05 -0.017897296 0.8534058
0.94699762 -0.05 -0.016832927 0.8674372
0.94081 -0.05 -0.015774935 0.86983453
0.93462131 -0.05 -0.014723313 0.87842616
0.92843155 -0.05 -0.013678003 0.88603272
0.92224073 -0.05 -0.012638929 0.89902843
0.91604887 -0.05 -0.011606056 0.90084274
0.909856 -0.05 -0.010579235 0.90576942
0.90366214 -0.05 -0.0095584673 0.9144204
0.89746729 -0.05 -0.0085437226 0.93353778
0.89127149 -0.05 -0.0075348654 0.95058159
0.88507472 -0.05 -0.0065318825 0.96675031
0.87887699 -0.05 -0.0055348303 0.98299718
0.87267834 -0.05 -0.0045435724 1.0735309
0.86647878 -0.05 -0.0035580411 1.1798257
0.86027829 -0.05 -0.0025782651 1.1587345
0.85407692 -0.05 -0.0016041584 1.0913764
0.84787467 -0.05 -0.00063565908 1.1117482
0.84167155 -0.05 0.00032721917 1.0206783
0.83546755 -0.05 0.00128444 1.019035
0.8292627 -0.05 0.002236178 0.9720189
0.82305701 -0.05 0.0031823929 0.89057805
0.81685048 -0.05 0.0041230384 0.77370579
0.81064312 -0.05 0.0050581935 0.60256281
0.80443493 -0.05 0.0059878674 0.30317073
0.79822593 -0.05 0.0069120918 0.49490493
0.7920161 -0.05 0.0078308212 0.74192312
0.78580549 -0.05 0.0087441421 0.91715069
0.77959408 -0.05 0.0096520189 1.0813663
0.77338187 -0.05 0.01055442 1.2393843
0.76716888 -0.05 0.011451407 1.3947831
0.7609551 -0.05 0.012342964 1.5487914
0.75474054 -0.05 0.013229081 1.703159
0.74852521 -0.05 0.014109732 1.859166
0.7423091 -0.05 0.014984898 2.0188088
0.73609222 -0.05 0.015854567 2.1838179
0.72987457 -0.05 0.016718703 2.3540647
0.72365617 -0.05 0.017577339 2.5293043
0.71743701 -0.05 0.018430504 2.7099623
0.71121707 -0.05 0.019278024 2.8934547
0.70499637 -0.05 0.020119949 3.08005
0.69877492 -0.05 0.020956246 3.2699735
0.6925527 -0.05 0.021786821 3.4618798
0.68632972 -0.05 0.02261173 3.6581624
0.68010598 -0.05 0.023430875 3.8611727
0.6738815 -0.05 0.024244267 4.0781721
0.66765624 -0.05 0.02505179 4.2992317
0.66143021 -0.05 0.025853342 4.5223987
0.65520343 -0.05 0.026649008 4.7497507
0.64897589 -0.05 0.027438702 4.9812425
0.64274758 -0.05 0.028222259 5.2154238
0.63651849 -0.05 0.028999645 5.4525451
0.63028863 -0.05 0.029770863 5.6934609
0.624058 -0.05 0.030535776 5.9383353
0.61782658 -0.05 0.031294297 6.1868553
0.61159439 -0.05 0.032046426 6.4397134
0.60536141 -0.05 0.032792015 6.6956753
0.59912765 -0.05 0.033530996 6.9551148
0.5928931 -0.05 0.034263282 7.2190088
0.58665775 -0.05 0.034988784 7.4870872
0.5804216 -0.05 0.035707386 7.7589994
0.57418465 -0.05 0.036418943 8.0335925
0.56794691 -0.05 0.037123422 8.3128626
0.56170834 -0.05 0.037820701 8.5969068
0.55546895 -0.05 0.03851062 8.8844042
0.54922875 -0.05 0.039193105 9.174805
0.54298773 -0.05 0.039867996 9.4679405
0.53674587 -0.05 0.040535153 9.7698424
0.53050318 -0.05 0.041194504 10.103898
0.52425966 -0.05 0.041845879 10.472913
0.51801529 -0.05 0.042489134 10.838956
0.51177007 -0.05 0.043124103 11.190622
0.50552401 -0.05 0.043750648 11.537185
0.4992771 -0.05 0.044368644 11.885122
0.49302933 -0.05 0.044977894 12.234508
0.48678068 -0.05 0.045578196 12.584474
0.48053117 -0.05 0.046169424 12.934296
0.4742808 -0.05 0.046751441 13.285449
0.46802956 -0.05 0.047323996 13.638178
0.46177744 -0.05 0.047886874 13.991918
0.45552444 -0.05 0.048439913 14.345868
0.44927056 -0.05 0.048982931 14.699781
0.44301579 -0.05 0.049515699 15.054458
0.43676015 -0.05 0.050037979 15.41051
0.43050362 -0.05 0.050549559 15.767441
0.4242462 -0.05 0.051050241 16.124581
0.41798792 -0.05 0.051539775 16.481583
0.41172874 -0.05 0.052017883 16.838943
0.40546868 -0.05 0.05248434 17.197979
0.39920776 -0.05 0.05293886 17.557987
0.39294595 -0.05 0.053381135 17.917289
0.38668328 -0.05 0.053810949 18.276285
0.38041973 -0.05 0.05422806 18.636671
0.37415534 -0.05 0.05463207 18.998037
0.3678901 -0.05 0.055022657 19.359395
0.36162402 -0.05 0.05539958 19.720956
0.3553571 -0.05 0.055762501 20.082665
0.34908939 -0.05 0.056111064 20.444521
0.34282086 -0.05 0.056444879 20.807627
0.33655155 -0.05 0.056763618 21.171644
0.33028147 -0.05 0.057066888 21.536169
0.32401065 -0.05 0.057354263 21.899777
0.3177391 -0.05 0.057625354 22.264456
0.31146685 -0.05 0.057879744 22.63068
0.30519392 -0.05 0.058116996 22.797825
