# p  FACE_DATA 448
# x y z  p
0.29602823 -0.05 -0.060877179 99514.101
0.29039225 -0.05 -0.060758113 99509.263
0.28483773 -0.05 -0.060626195 99505.084
0.27936353 -0.05 -0.060481617 99500.943
0.27396853 -0.05 -0.060324622 99496.947
0.26865163 -0.05 -0.060155488 99493.101
0.26341174 -0.05 -0.05997447 99489.352
0.25824779 -0.05 -0.059781793 99485.796
0.25315873 -0.05 -0.059577727 99482.281
0.2481435 -0.05 -0.059362498 99478.966
0.24320109 -0.05 -0.059136271 99475.766
0.23833049 -0.05 -0.058899308 99472.715
0.2335307 -0.05 -0.058651831 99469.796
0.22880073 -0.05 -0.058394086 99466.978
0.22413962 -0.05 -0.0581263 99464.294
0.21954642 -0.05 -0.057848626 99461.795
0.21502018 -0.05 -0.057561313 99459.338
0.21055998 -0.05 -0.057264566 99457.076
0.2061649 -0.05 -0.0569585 99454.977
0.20183405 -0.05 -0.056643366 99452.997
0.19756654 -0.05 -0.05631936 99451.189
0.1933615 -0.05 -0.055986699 99449.419
0.18921805 -0.05 -0.055645571 99447.814
0.18513536 -0.05 -0.055296045 99446.431
0.1811126 -0.05 -0.054938357 99445.099
0.17714894 -0.05 -0.054572686 99443.988
0.17324356 -0.05 -0.054199176 99442.949
0.16939567 -0.05 -0.053818021 99442.09
0.16560447 -0.05 -0.053429368 99441.339
0.1618692 -0.05 -0.053033342 99440.819
0.1581891 -0.05 -0.052630059 99440.433
0.1545634 -0.05 -0.052219731 99440.148
0.15099137 -0.05 -0.051802457 99440.059
0.14747228 -0.05 -0.051378367 99440.057
0.14400541 -0.05 -0.050947597 99440.251
0.14059007 -0.05 -0.050510228 99440.626
0.13722554 -0.05 -0.050066406 99441.186
0.13391115 -0.05 -0.049616233 99441.961
0.13064622 -0.05 -0.049159867 99442.825
0.12743008 -0.05 -0.048697406 99443.945
0.1242621 -0.05 -0.048228863 99445.279
0.12114162 -0.05 -0.04775441 99446.657
0.118068 -0.05 -0.047274155 99448.186
0.11504064 -0.05 -0.046788104 99449.898
0.11205892 -0.05 -0.046296318 99451.831
0.10912226 -0.05 -0.045798917 99453.989
0.10623006 -0.05 -0.045295923 99456.512
0.10338174 -0.05 -0.044787416 99459.094
0.10057671 -0.05 -0.044273542 99461.794
0.097814442 -0.05 -0.04375423 99464.82
0.095094387 -0.05 -0.043229525 99468.003
0.092415992 -0.05 -0.042699558 99471.433
0.089778755 -0.05 -0.042164234 99475.312
0.087182156 -0.05 -0.041623607 99479.36
0.084625682 -0.05 -0.041077732 99483.748
0.082108839 -0.05 -0.040526624 99488.169
0.079631139 -0.05 -0.039970315 99492.9
0.077192135 -0.05 -0.039408691 99498.058
0.07479137 -0.05 -0.038841733 99503.626
0.072428376 -0.05 -0.038269501 99509.494
0.070102709 -0.05 -0.037692005 99515.724
0.067813966 -0.05 -0.037109124 99522.3
0.065561736 -0.05 -0.036520806 99529.083
0.063345609 -0.05 -0.035927037 99536.25
0.06116521 -0.05 -0.035327717 99543.99
0.059020172 -0.05 -0.034722753 99552.319
0.056910133 -0.05 -0.034112073 99561.211
0.054834755 -0.05 -0.033495566 99570.491
0.052793689 -0.05 -0.032873191 99579.967
0.050786649 -0.05 -0.03224475 99590.188
0.048813347 -0.05 -0.031610085 99601.012
0.046873483 -0.05 -0.030969123 99612.681
0.044966806 -0.05 -0.030321674 99625.054
0.043093087 -0.05 -0.029667547 99638.007
0.041252139 -0.05 -0.02900646 99651.641
0.039443766 -0.05 -0.028338214 99666.322
0.037667776 -0.05 -0.027662655 99682.03
0.035924043 -0.05 -0.026979492 99699.013
0.034212472 -0.05 -0.026288417 99717.151
0.032532996 -0.05 -0.025589113 99736.06
0.030885572 -0.05 -0.024881264 99755.595
0.0292702 -0.05 -0.024164516 99776.916
0.027686949 -0.05 -0.023438438 99800.32
0.026135896 -0.05 -0.022702652 99825.756
0.024617204 -0.05 -0.021956675 99852.789
0.023131094 -0.05 -0.021199996 99880.846
0.02167784 -0.05 -0.020432112 99911.432
0.020257841 -0.05 -0.019652406 99945.116
0.018871516 -0.05 -0.018860314 99980.755
0.017519458 -0.05 -0.018055128 100018.8
0.016202346 -0.05 -0.017236103 100058.91
0.01492095 -0.05 -0.016402515 100101.61
0.013676235 -0.05 -0.015553539 100149.41
0.012469344 -0.05 -0.014688342 100203.33
0.01130162 -0.05 -0.013806061 100263.69
0.010174635 -0.05 -0.012905734 100330.22
0.0090901583 -0.05 -0.011986346 100403.35
0.0080502726 -0.05 -0.011047086 100482.81
0.0070574845 -0.05 -0.010087167 100566.93
0.0061145476 -0.05 -0.0091055573 100654.81
0.0052245338 -0.05 -0.0081015917 100747.91
0.0043911782 -0.05 -0.0070751796 100848.35
0.0036183581 -0.05 -0.0060260207 100953.11
0.0029101563 -0.05 -0.0049543723 101060.9
0.0022712853 -0.05 -0.0038616453 101169.02
0.0017062899 -0.05 -0.0027494013 101273.97
0.0012194619 -0.05 -0.0016202218 101370.69
0.00081464924 -0.05 -0.0004782185 101453.18
0.00049484694 -0.05 0.0006721501 101520.16
0.00026170555 -0.05 0.0018255461 101565.05
0.00011519236 -0.05 0.0029759113 101583.65
5.3694789e-05 -0.05 0.0041172101 101577.31
0.9967541 -0.05 -0.014445876 100295.34
0.99052525 -0.05 -0.015225147 100169.99
0.98429551 -0.05 -0.015997413 100162.61
0.97806492 -0.05 -0.016762702 100143.62
0.9718335 -0.05 -0.01752112 100128.4
0.96560126 -0.05 -0.018272824 100113.88
0.95936821 -0.05 -0.0190178 100100.89
0.95313437 -0.05 -0.01975611 100088.8
0.94689976 -0.05 -0.02048791 100077.61
0.9406644 -0.05 -0.021213285 100067.05
0.93442829 -0.05 -0.021932239 100057.23
0.92819145 -0.05 -0.022644833 100047.85
0.9219539 -0.05 -0.023351145 100039.06
0.91571565 -0.05 -0.024051207 100030.64
0.90947672 -0.05 -0.024745174 100022.54
0.9032371 -0.05 -0.025433043 100014.85
0.89699684 -0.05 -0.026114844 100007.43
0.89075592 -0.05 -0.026790715 100000.21
0.88451436 -0.05 -0.027460669 99993.27
0.87827216 -0.05 -0.028124649 99986.657
0.87202935 -0.05 -0.028782793 99980.105
0.86578592 -0.05 -0.02943517 99973.822
0.8595419 -0.05 -0.030081752 99967.709
0.85329729 -0.05 -0.030722623 99961.734
0.8470521 -0.05 -0.031357849 99955.846
0.84080634 -0.05 -0.031987416 99950.166
0.83456001 -0.05 -0.032611286 99944.683
0.82831312 -0.05 -0.033229636 99939.092
0.8220657 -0.05 -0.033842425 99933.813
0.81581772 -0.05 -0.034449608 99928.529
0.80956921 -0.05 -0.035051264 99923.424
0.80332016 -0.05 -0.035647402 99918.324
0.7970706 -0.05 -0.036238055 99913.36
0.79082052 -0.05 -0.036823178 99908.514
0.78456994 -0.05 -0.037402856 99903.642
0.77831884 -0.05 -0.037977057 99898.992
0.77206724 -0.05 -0.038545747 99894.423
0.76581515 -0.05 -0.039108988 99890.03
0.75956256 -0.05 -0.039666764 99885.741
0.75330949 -0.05 -0.040219068 99881.447
0.74705595 -0.05 -0.040765871 99877.002
0.74080192 -0.05 -0.041307157 99872.283
0.73454741 -0.05 -0.041842912 99867.399
0.72829242 -0.05 -0.042373099 99862.466
0.72203698 -0.05 -0.042897755 99857.505
0.71578108 -0.05 -0.043416906 99852.612
0.7095247 -0.05 -0.04393038 99847.989
0.70326786 -0.05 -0.044438226 99843.151
0.69701057 -0.05 -0.044940411 99838.567
0.69075282 -0.05 -0.045436842 99833.909
0.68449461 -0.05 -0.045927574 99829.296
0.67823596 -0.05 -0.046412511 99824.707
0.67197687 -0.05 -0.046891661 99820.021
0.66571733 -0.05 -0.047364909 99815.489
0.65945733 -0.05 -0.047832155 99810.973
0.65319689 -0.05 -0.048293483 99806.306
0.64693601 -0.05 -0.048748807 99801.661
0.64067469 -0.05 -0.04919796 99797.079
0.63441293 -0.05 -0.049640911 99792.461
0.62815073 -0.05 -0.050077661 99787.727
0.62188809 -0.05 -0.050508073 99783.083
0.61562501 -0.05 -0.050932062 99778.378
0.60936151 -0.05 -0.051349624 99773.653
0.60309756 -0.05 -0.051760616 99769.004
0.59683319 -0.05 -0.052164966 99764.286
0.59056838 -0.05 -0.052562589 99759.608
0.58430315 -0.05 -0.052953394 99754.851
0.57803748 -0.05 -0.053337266 99750.13
0.57177139 -0.05 -0.053714062 99745.341
0.56550488 -0.05 -0.054083746 99740.457
0.55923794 -0.05 -0.054446197 99735.57
0.55297057 -0.05 -0.054801255 99730.649
0.5467028 -0.05 -0.055148846 99725.597
0.5404346 -0.05 -0.055488809 99720.646
0.53416599 -0.05 -0.055821005 99715.667
0.52789696 -0.05 -0.056145362 99710.667
0.52162753 -0.05 -0.056461708 99705.664
0.51535769 -0.05 -0.056769903 99700.6
0.50908745 -0.05 -0.057069777 99695.542
0.5028168 -0.05 -0.057361194 99690.401
0.49654576 -0.05 -0.057644029 99685.196
0.49027434 -0.05 -0.057918085 99679.964
0.48400253 -0.05 -0.058183158 99674.753
0.47773034 -0.05 -0.058439125 99669.445
0.47145778 -0.05 -0.058685847 99664.094
0.46518486 -0.05 -0.058923074 99658.732
0.45891157 -0.05 -0.059150591 99653.309
0.45263793 -0.05 -0.059368237 99647.815
0.44636395 -0.05 -0.059575828 99642.363
0.44008964 -0.05 -0.059773138 99636.924
0.43381502 -0.05 -0.059959926 99631.446
0.42754008 -0.05 -0.060135983 99625.94
0.42126484 -0.05 -0.06030111 99620.396
0.41498932 -0.05 -0.060455058 99614.84
0.40871352 -0.05 -0.060597549 99609.27
0.40243748 -0.05 -0.060728359 99603.653
0.3961612 -0.05 -0.060847203 99598.098
0.38988469 -0.05 -0.060953771 99592.59
0.38360799 -0.05 -0.061047849 99587.057
0.37733111 -0.05 -0.061129197 99581.502
0.37105407 -0.05 -0.061197417 99576.067
0.3647769 -0.05 -0.061252188 99570.631
0.35849963 -0.05 -0.06129327 99565.217
0.35222228 -0.05 -0.061320326 99559.812
0.34594488 -0.05 -0.061332999 99554.474
0.33966747 -0.05 -0.061330905 99549.198
0.33339009 -0.05 -0.061313713 99543.892
0.32711277 -0.05 -0.061281032 99538.692
0.32083555 -0.05 -0.06123244 99533.603
0.31455848 -0.05 -0.061167549 99528.644
0.3082816 -0.05 -0.061085942 99523.421
0.30200498 -0.05 -0.060987188 99517.675
0.29827709 -0.05 0.059109651 99428.163
0.29264061 -0.05 0.059201861 99421.853
0.28708505 -0.05 0.059278175 99415.322
0.28160928 -0.05 0.059338827 99409.003
0.27621218 -0.05 0.059384104 99402.651
0.27089268 -0.05 0.059414324 99396.484
0.26564969 -0.05 0.059429783 99390.444
0.26048214 -0.05 0.059430745 99384.593
0.25538901 -0.05 0.05941752 99378.726
0.25036923 -0.05 0.059390373 99373.048
0.24542182 -0.05 0.059349507 99367.406
0.24054576 -0.05 0.059295222 99361.936
0.23574007 -0.05 0.059227777 99356.638
0.23100376 -0.05 0.059147454 99351.439
0.22633589 -0.05 0.059054518 99346.312
0.22173551 -0.05 0.058949156 99341.306
0.21720168 -0.05 0.058831652 99336.213
0.21273349 -0.05 0.058702246 99331.339
0.20833004 -0.05 0.058561088 99326.668
0.20399042 -0.05 0.058408461 99322.091
0.19971376 -0.05 0.058244595 99317.691
0.19549921 -0.05 0.05806974 99313.264
0.1913459 -0.05 0.057884115 99308.932
0.18725298 -0.05 0.05768782 99304.85
0.18321964 -0.05 0.057481125 99300.813
0.17924505 -0.05 0.057264236 99297.042
0.17532843 -0.05 0.057037332 99293.255
0.17146896 -0.05 0.056800633 99289.523
0.16766585 -0.05 0.056554317 99285.696
0.16391836 -0.05 0.056298538 99282.073
0.16022574 -0.05 0.05603344 99278.641
0.15658721 -0.05 0.055759262 99275.268
0.15300205 -0.05 0.055476132 99272.09
0.14946955 -0.05 0.055184207 99268.902
0.14598897 -0.05 0.05488365 99265.891
0.14255963 -0.05 0.054574569 99263.067
0.13918083 -0.05 0.054257133 99260.434
0.1358519 -0.05 0.053931475 99258.056
0.13257217 -0.05 0.053597773 99255.672
0.12934096 -0.05 0.053256151 99253.565
0.12615765 -0.05 0.052906649 99251.688
0.12302158 -0.05 0.05254946 99249.75
0.11993212 -0.05 0.052184717 99247.942
0.11688866 -0.05 0.051812449 99246.312
0.11389062 -0.05 0.051432739 99244.841
0.11093738 -0.05 0.05104573 99243.446
0.10802836 -0.05 0.050651466 99242.441
0.10516299 -0.05 0.050250049 99241.385
0.10234068 -0.05 0.049841646 99240.412
0.099560885 -0.05 0.049426207 99239.883
0.096823081 -0.05 0.049003796 99239.319
0.094126707 -0.05 0.048574565 99238.82
0.091471263 -0.05 0.04813844 99238.858
0.088856229 -0.05 0.047695493 99238.855
0.086281096 -0.05 0.047245797 99239.237
0.083745369 -0.05 0.046789388 99239.507
0.081248562 -0.05 0.046326315 99240.07
0.078790226 -0.05 0.04585648 99241.034
0.076369902 -0.05 0.045379881 99242.31
0.073987126 -0.05 0.044896597 99243.614
0.071641453 -0.05 0.044406655 99245.133
0.069332475 -0.05 0.043909946 99247.099
0.067059781 -0.05 0.043406437 99249.257
0.064822961 -0.05 0.042896129 99251.681
0.062621635 -0.05 0.042378934 99254.501
0.060455434 -0.05 0.041854773 99257.695
0.058323994 -0.05 0.041323589 99261.274
0.056226972 -0.05 0.040785284 99265.274
0.054164019 -0.05 0.040239829 99269.406
0.052134838 -0.05 0.039687037 99274.436
0.05013914 -0.05 0.039126761 99279.722
0.04817662 -0.05 0.03855894 99285.556
0.046247022 -0.05 0.037983394 99291.781
0.044350106 -0.05 0.037399938 99298.715
0.042485678 -0.05 0.036808299 99306.577
0.040653535 -0.05 0.036208286 99315.099
0.038853478 -0.05 0.035599751 99324.216
0.037085371 -0.05 0.03498241 99334.302
0.035349105 -0.05 0.034355956 99345.296
0.033644605 -0.05 0.033720076 99357.464
0.031971813 -0.05 0.033074457 99370.636
0.030330718 -0.05 0.032418743 99385.202
0.028721371 -0.05 0.031752503 99401.226
0.027143836 -0.05 0.031075354 99418.689
0.025598256 -0.05 0.030386811 99438.046
0.024084836 -0.05 0.029686351 99459.26
0.022603829 -0.05 0.028973464 99482.649
0.02115561 -0.05 0.028247515 99508.576
0.019740578 -0.05 0.027507928 99536.89
0.018359298 -0.05 0.026753971 99568.697
0.01701242 -0.05 0.025984876 99603.684
0.015700688 -0.05 0.025199889 99642.678
0.014425034 -0.05 0.024398152 99685.851
0.013186571 -0.05 0.023578788 99734.025
0.011986606 -0.05 0.022740883 99787.426
0.010826675 -0.05 0.021883419 99847.086
0.0097085082 -0.05 0.021005315 99913.265
0.0086341568 -0.05 0.020105681 99987.172
0.0076060957 -0.05 0.019183637 100069.98
0.0066270382 -0.05 0.018238052 100161.8
0.0057000288 -0.05 0.017268142 100262.85
0.0048287968 -0.05 0.016273678 100373.56
0.0040172052 -0.05 0.015254215 100493.94
0.0032693439 -0.05 0.014209857 100622.81
0.0025899749 -0.05 0.013141837 100758.46
0.0019836984 -0.05 0.012051546 100898.42
0.0014548995 -0.05 0.010941402 101038.28
0.001007578 -0.05 0.0098153698 101173.1
0.00064489357 -0.05 0.0086777929 101296.36
0.00036869581 -0.05 0.0075339432 101401.86
0.00017917897 -0.05 0.0063898761 101486.09
7.4957775e-05 -0.05 0.0052516833 101545.5
0.99677095 -0.05 -0.013546681 100065.11
0.99057568 -0.05 -0.012534548 100074.96
0.98437926 -0.05 -0.011529384 100057.29
0.97818172 -0.05 -0.01053116 100057.73
0.97198309 -0.05 -0.0095397708 100050.07
0.96578339 -0.05 -0.0085550589 100045.61
0.95958264 -0.05 -0.0075770413 100039.74
0.95338084 -0.05 -0.0066056547 100034.35
0.94717803 -0.05 -0.0056407451 100028.68
0.94097423 -0.05 -0.0046822282 100023.08
0.93476945 -0.05 -0.0037300993 100017.36
0.9285637 -0.05 -0.0027842985 100011.68
0.922357 -0.05 -0.0018447496 100005.94
0.91614936 -0.05 -0.00091141776 100000.22
0.90994081 -0.05 1.5847545e-05 99994.459
0.90373136 -0.05 0.0009370437 99988.73
0.89752101 -0.05 0.0018522019 99982.981
0.89130981 -0.05 0.0027614579 99977.242
0.88509774 -0.05 0.003664825 99971.489
0.8788848 -0.05 0.0045622468 99965.755
0.87267103 -0.05 0.0054538601 99960.038
0.86645644 -0.05 0.0063397329 99954.34
0.86024103 -0.05 0.0072198364 99948.662
0.85402482 -0.05 0.008094257 99943.009
0.84780782 -0.05 0.0089630569 99937.379
0.84159004 -0.05 0.0098262224 99931.777
0.83537147 -0.05 0.010683717 99926.196
0.82915214 -0.05 0.011535716 99920.625
0.82293206 -0.05 0.01238218 99915.096
0.81671123 -0.05 0.01322306 99909.572
0.81048965 -0.05 0.014058438 99904.08
0.80426734 -0.05 0.014888322 99898.599
0.79804429 -0.05 0.015712744 99893.154
0.79182052 -0.05 0.01653166 99887.735
0.78559605 -0.05 0.017345153 99882.334
0.77937087 -0.05 0.018153191 99876.97
0.77314497 -0.05 0.018955743 99871.618
0.76691837 -0.05 0.019752866 99866.293
0.76069108 -0.05 0.020544549 99860.987
0.7544631 -0.05 0.02133078 99855.701
0.74823443 -0.05 0.022111532 99850.431
0.74200508 -0.05 0.022886789 99845.18
0.73577504 -0.05 0.023656537 99839.951
0.72954432 -0.05 0.02442074 99834.755
0.72331293 -0.05 0.02517943 99829.569
0.71708087 -0.05 0.025932639 99824.397
0.71084812 -0.05 0.026680191 99819.265
0.70461472 -0.05 0.027422137 99814.11
0.69838063 -0.05 0.028158443 99809.004
0.69214588 -0.05 0.028889016 99803.872
0.68591047 -0.05 0.029613912 99798.763
0.67967438 -0.05 0.030333032 99793.663
0.67343763 -0.05 0.031046387 99788.559
0.66720021 -0.05 0.031753862 99783.487
0.66096212 -0.05 0.032455353 99778.414
0.65472337 -0.05 0.033150949 99773.328
0.64848396 -0.05 0.033840561 99768.255
0.64224386 -0.05 0.034524024 99763.192
0.63600309 -0.05 0.035201305 99758.133
0.62976166 -0.05 0.035872405 99753.063
0.62351954 -0.05 0.036537188 99748.018
0.61727675 -0.05 0.03719557 99742.959
0.61103329 -0.05 0.037847545 99737.903
0.60478915 -0.05 0.038492971 99732.846
0.59854433 -0.05 0.039131776 99727.753
0.59229882 -0.05 0.039763875 99722.667
0.58605263 -0.05 0.040389178 99717.546
0.57980575 -0.05 0.041007568 99712.448
0.57355818 -0.05 0.041618901 99707.33
0.56730992 -0.05 0.042223146 99702.168
0.56106096 -0.05 0.042820178 99696.975
0.55481131 -0.05 0.043409836 99691.758
0.54856096 -0.05 0.04399205 99686.497
0.54230991 -0.05 0.044566657 99681.246
0.53605814 -0.05 0.045133516 99675.932
0.52980567 -0.05 0.045692559 99670.558
0.52355249 -0.05 0.046243612 99665.125
0.5172986 -0.05 0.046786535 99659.633
0.511044 -0.05 0.047321156 99654.103
0.50478868 -0.05 0.047847343 99648.475
0.49853266 -0.05 0.048364968 99642.803
0.4922759 -0.05 0.048873834 99637.149
0.48601842 -0.05 0.049373739 99631.499
0.47976023 -0.05 0.049864558 99625.74
0.47350133 -0.05 0.050346152 99619.884
0.4672417 -0.05 0.050818272 99613.919
0.46098134 -0.05 0.051280702 99607.853
0.45472027 -0.05 0.051733281 99601.711
0.44845847 -0.05 0.052175826 99595.501
0.44219596 -0.05 0.052608108 99589.193
0.43593275 -0.05 0.053029888 99582.79
0.42966881 -0.05 0.053440956 99576.319
0.42340416 -0.05 0.053841114 99569.788
0.41713881 -0.05 0.054230109 99563.193
0.41087277 -0.05 0.054607668 99556.479
0.40460604 -0.05 0.054973562 99549.657
0.39833861 -0.05 0.055327507 99542.852
0.39207051 -0.05 0.055669194 99536.027
0.38580174 -0.05 0.055998407 99529.056
0.37953232 -0.05 0.056314906 99521.967
0.37326224 -0.05 0.056618292 99514.944
0.36699154 -0.05 0.056908243 99507.883
0.36072021 -0.05 0.057184518 99500.752
0.35444828 -0.05 0.05744678 99493.526
0.34817577 -0.05 0.057694672 99486.296
0.34190269 -0.05 0.057927806 99479.104
0.33562907 -0.05 0.058145852 99471.81
0.32935494 -0.05 0.058348419 99464.502
0.32308031 -0.05 0.058535082 99457.203
0.31680521 -0.05 0.05870545 99449.88
0.31052969 -0.05 0.058859109 99442.343
0.30425377 -0.05 0.058995623 99435.384
