# wallShearStress  FACE_DATA 448
# x y z  wallShearStress_x wallShearStress_y wallShearStress_z
0.29602823 -0.05 -0.060877179 -7.0239245 2.5679344e-17 0.13845308
0.29039225 -0.05 -0.060758113 -6.8512542 1.2137096e-16 0.15301366
0.28483773 -0.05 -0.060626195 -6.7172714 1.203995e-17 0.16770985
0.27936353 -0.05 -0.060481617 -6.5864026 -1.0977951e-16 0.18206278
0.27396853 -0.05 -0.060324622 -6.4629693 7.4825023e-17 0.19601665
0.26865163 -0.05 -0.060155488 -6.3457785 1.3246163e-16 0.20972195
0.26341174 -0.05 -0.05997447 -6.2350538 1.4977873e-16 0.22314122
0.25824779 -0.05 -0.059781793 -6.1306267 -3.5910137e-16 0.23640551
0.25315873 -0.05 -0.059577727 -6.0324606 -1.4082468e-16 0.24943153
0.2481435 -0.05 -0.059362498 -5.940465 9.4462689e-17 0.26247356
0.24320109 -0.05 -0.059136271 -5.8536162 3.4882781e-16 0.27533895
0.23833049 -0.05 -0.058899308 -5.7715545 -2.0809535e-16 0.28808723
0.2335307 -0.05 -0.058651831 -5.6930049 2.5273372e-17 0.30067688
0.22880073 -0.05 -0.058394086 -5.6173456 -1.786814e-16 0.31321038
0.22413962 -0.05 -0.0581263 -5.5454804 -7.6629168e-18 0.32579349
0.21954642 -0.05 -0.057848626 -5.4769403 -3.64616e-16 0.338358
0.21502018 -0.05 -0.057561313 -5.4119503 3.5170566e-16 0.35085242
0.21055998 -0.05 -0.057264566 -5.350638 -2.0746592e-16 0.36350721
0.2061649 -0.05 -0.0569585 -5.2921099 1.994508e-16 0.37611211
0.20183405 -0.05 -0.056643366 -5.2366789 2.9649459e-16 0.38872313
0.19756654 -0.05 -0.05631936 -5.1843803 4.4976718e-17 0.40142392
0.1933615 -0.05 -0.055986699 -5.135286 -6.7998295e-17 0.41419924
0.18921805 -0.05 -0.055645571 -5.089604 -6.2845369e-17 0.42726096
0.18513536 -0.05 -0.055296045 -5.0462496 -4.3268537e-16 0.44039379
0.1811126 -0.05 -0.054938357 -5.0053667 -2.192633e-16 0.45356784
0.17714894 -0.05 -0.054572686 -4.9672773 3.5784123e-16 0.46703742
0.17324356 -0.05 -0.054199176 -4.9313717 7.951619e-17 0.4805778
0.16939567 -0.05 -0.053818021 -4.8982168 1.0944568e-16 0.49442383
0.16560447 -0.05 -0.053429368 -4.867244 2.2723729e-16 0.50847175
0.1618692 -0.05 -0.053033342 -4.8383341 -3.1979826e-17 0.5228234
0.1581891 -0.05 -0.052630059 -4.8109381 -3.8974704e-17 0.53727751
0.1545634 -0.05 -0.052219731 -4.7856857 8.4483913e-17 0.55204411
0.15099137 -0.05 -0.051802457 -4.7624404 -5.4026265e-16 0.56717425
0.14747228 -0.05 -0.051378367 -4.7409855 6.0870077e-16 0.58253298
0.14400541 -0.05 -0.050947597 -4.7215507 5.971337e-16 0.59832147
0.14059007 -0.05 -0.050510228 -4.7035523 2.7314394e-16 0.61432789
0.13722554 -0.05 -0.050066406 -4.6872158 -2.7956563e-16 0.63062338
0.13391115 -0.05 -0.049616233 -4.6729551 -2.0684697e-17 0.6472714
0.13064622 -0.05 -0.049159867 -4.6617862 -1.0300487e-16 0.66436676
0.12743008 -0.05 -0.048697406 -4.6550225 -2.5313775e-16 0.68230401
0.1242621 -0.05 -0.048228863 -4.6527528 6.2887656e-16 0.7009256
0.12114162 -0.05 -0.04775441 -4.6558766 1.6689169e-17 0.72052757
0.118068 -0.05 -0.047274155 -4.6624255 -5.20454e-17 0.74153258
0.11504064 -0.05 -0.046788104 -4.6670494 -5.9650836e-16 0.76334456
0.11205892 -0.05 -0.046296318 -4.6685038 -4.8878243e-16 0.78530911
0.10912226 -0.05 -0.045798917 -4.6698717 1.1242567e-16 0.80743909
0.10623006 -0.05 -0.045295923 -4.6719951 2.9082132e-16 0.8298103
0.10338174 -0.05 -0.044787416 -4.6747561 -3.8886662e-16 0.85248546
0.10057671 -0.05 -0.044273542 -4.6798339 -8.3546003e-17 0.87634802
0.097814442 -0.05 -0.04375423 -4.6864474 2.0394363e-16 0.90108412
0.095094387 -0.05 -0.043229525 -4.6941049 5.406156e-16 0.92640585
0.092415992 -0.05 -0.042699558 -4.7034245 2.602445e-16 0.9528798
0.089778755 -0.05 -0.042164234 -4.7130204 -1.2569428e-16 0.9800313
0.087182156 -0.05 -0.041623607 -4.7226125 3.7935939e-16 1.0077065
0.084625682 -0.05 -0.041077732 -4.7342955 2.8628618e-16 1.0366936
0.082108839 -0.05 -0.040526624 -4.7481162 -1.7772557e-16 1.0670351
0.079631139 -0.05 -0.039970315 -4.7652737 2.76875e-16 1.0993948
0.077192135 -0.05 -0.039408691 -4.782637 6.032972e-17 1.1326415
0.07479137 -0.05 -0.038841733 -4.7987289 6.81024e-16 1.1663495
0.072428376 -0.05 -0.038269501 -4.8134602 4.1041917e-16 1.2006115
0.070102709 -0.05 -0.037692005 -4.8273983 2.0176288e-16 1.2357335
0.067813966 -0.05 -0.037109124 -4.8403514 -3.6779077e-16 1.2715358
0.065561736 -0.05 -0.036520806 -4.8542015 -2.50138e-16 1.3086588
0.063345609 -0.05 -0.035927037 -4.8712101 3.0183319e-16 1.3481051
0.06116521 -0.05 -0.035327717 -4.8903591 6.9826438e-16 1.3895867
0.059020172 -0.05 -0.034722753 -4.9099258 -1.7032066e-16 1.4326057
0.056910133 -0.05 -0.034112073 -4.9293002 4.6850854e-16 1.4769644
0.054834755 -0.05 -0.033495566 -4.9485441 4.1240522e-16 1.5229439
0.052793689 -0.05 -0.032873191 -4.9687007 -8.6627631e-16 1.5716482
0.050786649 -0.05 -0.03224475 -4.9892046 -1.0999293e-15 1.6226561
0.048813347 -0.05 -0.031610085 -5.0068756 6.9144273e-16 1.6745473
0.046873483 -0.05 -0.030969123 -5.0228396 4.4930702e-16 1.728175
0.044966806 -0.05 -0.030321674 -5.0372121 -5.1556269e-16 1.7835303
0.043093087 -0.05 -0.029667547 -5.0520726 -1.751294e-16 1.8424022
0.041252139 -0.05 -0.02900646 -5.0683539 -4.603057e-16 1.9053856
0.039443766 -0.05 -0.028338214 -5.0855303 4.0115194e-16 1.9711664
0.037667776 -0.05 -0.027662655 -5.1003435 8.1229979e-17 2.0394688
0.035924043 -0.05 -0.026979492 -5.1128831 -8.175981e-16 2.1100644
0.034212472 -0.05 -0.026288417 -5.1205538 -6.6788524e-17 2.1816581
0.032532996 -0.05 -0.025589113 -5.1224225 7.5007275e-17 2.2559587
0.030885572 -0.05 -0.024881264 -5.1198694 -4.523673e-16 2.335431
0.0292702 -0.05 -0.024164516 -5.1127493 -3.9753273e-16 2.4171547
0.027686949 -0.05 -0.023438438 -5.0890096 4.8284103e-16 2.4949801
0.026135896 -0.05 -0.022702652 -5.0520346 1.8252874e-16 2.5704798
0.024617204 -0.05 -0.021956675 -5.0113166 -6.7524035e-16 2.6479028
0.023131094 -0.05 -0.021199996 -4.9739818 -4.0843256e-17 2.7324855
0.02167784 -0.05 -0.020432112 -4.9301638 -5.5530194e-16 2.8171682
0.020257841 -0.05 -0.019652406 -4.84856 -2.0061238e-16 2.8833429
0.018871516 -0.05 -0.018860314 -4.7035071 -5.405973e-16 2.9231423
0.017519458 -0.05 -0.018055128 -4.5038202 2.6524622e-16 2.9446024
0.016202346 -0.05 -0.017236103 -4.2681685 1.2140376e-18 2.9646345
0.01492095 -0.05 -0.016402515 -4.0417837 6.1145355e-17 3.0210635
0.013676235 -0.05 -0.015553539 -3.8678925 1.3011342e-17 3.141869
0.012469344 -0.05 -0.014688342 -3.7263682 9.0435297e-16 3.3320602
0.01130162 -0.05 -0.013806061 -3.6114036 -6.3835344e-16 3.5952878
0.010174635 -0.05 -0.012905734 -3.5289248 -2.5775539e-16 3.9254105
0.0090901583 -0.05 -0.011986346 -3.5278576 -1.6639812e-16 4.3139929
0.0080502726 -0.05 -0.011047086 -3.6069499 -2.9078295e-18 4.7380516
0.0070574845 -0.05 -0.010087167 -3.6342436 -5.2448564e-16 5.0972187
0.0061145476 -0.05 -0.0091055573 -3.5726063 1.9321702e-16 5.3500963
0.0052245338 -0.05 -0.0081015917 -3.3925748 3.8119103e-16 5.4948201
0.0043911782 -0.05 -0.0070751796 -3.1154087 9.303498e-17 5.4947767
0.0036183581 -0.05 -0.0060260207 -2.7375778 -4.6791954e-16 5.3130252
0.0029101563 -0.05 -0.0049543723 -2.2979074 -7.1564977e-16 4.9826458
0.0022712853 -0.05 -0.0038616453 -1.8341869 -3.2607513e-16 4.5056438
0.0017062899 -0.05 -0.0027494013 -1.3748159 4.4015516e-16 3.8690824
0.0012194619 -0.05 -0.0016202218 -0.94901532 1.6263942e-16 3.1157631
0.00081464924 -0.05 -0.0004782185 -0.59712881 -1.1532953e-16 2.264391
0.00049484694 -0.05 0.0006721501 -0.36364863 6.9675587e-17 1.3481881
0.00026170555 -0.05 0.0018255461 -0.21131456 -2.864023e-17 0.67313121
0.00011519236 -0.05 0.0029759113 -0.14934851 -2.4759651e-18 0.088415908
5.3694789e-05 -0.05 0.0041172101 -0.13860292 1.3452401e-17 -0.47406427
0.9967541 -0.05 -0.014445876 -66.998742 -1.0874847e-15 -8.1009749
0.99052525 -0.05 -0.015225147 -64.999332 1.7569403e-15 -8.080496
0.98429551 -0.05 -0.015997413 -67.197375 1.4632652e-15 -8.1943281
0.97806492 -0.05 -0.016762702 -66.405182 4.9587832e-16 -8.0462688
0.9718335 -0.05 -0.01752112 -66.162607 6.5180093e-17 -7.9423022
0.96560126 -0.05 -0.018272824 -65.764532 -1.8233885e-15 -7.8241872
0.95936821 -0.05 -0.0190178 -65.374434 2.5797822e-15 -7.7077551
0.95313437 -0.05 -0.01975611 -64.961125 -8.4235848e-16 -7.5910925
0.94689976 -0.05 -0.02048791 -64.534923 1.2694537e-15 -7.4743383
0.9406644 -0.05 -0.021213285 -64.095263 -1.6692063e-15 -7.357506
0.93442829 -0.05 -0.021932239 -63.64349 2.0288726e-15 -7.2404844
0.92819145 -0.05 -0.022644833 -63.18174 -1.5968293e-15 -7.124308
0.9219539 -0.05 -0.023351145 -62.709276 -1.1604173e-15 -7.0081652
0.91571565 -0.05 -0.024051207 -62.22769 -1.0727505e-15 -6.8931172
0.90947672 -0.05 -0.024745174 -61.738105 1.7071669e-16 -6.7785446
0.9032371 -0.05 -0.025433043 -61.239962 2.2516947e-15 -6.6642749
0.89699684 -0.05 -0.026114844 -60.734316 -1.7251398e-15 -6.5511071
0.89075592 -0.05 -0.026790715 -60.222103 -1.7015001e-15 -6.4385792
0.88451436 -0.05 -0.027460669 -59.702277 -7.9258254e-16 -6.3262504
0.87827216 -0.05 -0.028124649 -59.174744 2.1650897e-15 -6.2148221
0.87202935 -0.05 -0.028782793 -58.641221 2.9942216e-15 -6.10464
0.86578592 -0.05 -0.02943517 -58.100642 1.9600271e-15 -5.9946088
0.8595419 -0.05 -0.030081752 -57.552941 -1.1650604e-15 -5.8855586
0.85329729 -0.05 -0.030722623 -56.998035 -1.3096918e-15 -5.7771748
0.8470521 -0.05 -0.031357849 -56.435919 -1.3396371e-16 -5.669285
0.84080634 -0.05 -0.031987416 -55.865938 -2.9720346e-16 -5.5617047
0.83456001 -0.05 -0.032611286 -55.286742 -8.6787812e-16 -5.4549341
0.82831312 -0.05 -0.033229636 -54.699608 -4.1812102e-16 -5.3489291
0.8220657 -0.05 -0.033842425 -54.100892 -4.1860658e-16 -5.2423278
0.81581772 -0.05 -0.034449608 -53.491086 -2.5757546e-16 -5.1367735
0.80956921 -0.05 -0.035051264 -52.867011 -5.379166e-16 -5.0310396
0.80332016 -0.05 -0.035647402 -52.22679 -4.4682488e-16 -4.9256618
0.7970706 -0.05 -0.036238055 -51.565555 9.7475166e-17 -4.8197872
0.79082052 -0.05 -0.036823178 -50.877359 -2.5522628e-16 -4.7136534
0.78456994 -0.05 -0.037402856 -50.153014 5.8577794e-16 -4.6066213
0.77831884 -0.05 -0.037977057 -49.375812 8.469822e-16 -4.497078
0.77206724 -0.05 -0.038545747 -48.525014 -4.939314e-16 -4.3840039
0.76581515 -0.05 -0.039108988 -47.578981 -5.8229999e-16 -4.2643514
0.75956256 -0.05 -0.039666764 -46.53613 4.6905738e-16 -4.1363437
0.75330949 -0.05 -0.040219068 -45.446982 2.863341e-17 -4.002312
0.74705595 -0.05 -0.040765871 -44.39358 2.0863603e-16 -3.8692584
0.74080192 -0.05 -0.041307157 -43.427091 9.2196935e-16 -3.7429229
0.73454741 -0.05 -0.041842912 -42.560362 5.819197e-18 -3.6256578
0.72829242 -0.05 -0.042373099 -41.795298 9.9274304e-16 -3.5190419
0.72203698 -0.05 -0.042897755 -41.080364 3.7477767e-16 -3.4200037
0.71578108 -0.05 -0.043416906 -40.375825 -3.7493244e-16 -3.3237806
0.7095247 -0.05 -0.04393038 -39.682166 7.6240676e-16 -3.2296393
0.70326786 -0.05 -0.044438226 -39.002028 -7.1454929e-16 -3.1385352
0.69701057 -0.05 -0.044940411 -38.330691 -7.8330313e-17 -3.0486193
0.69075282 -0.05 -0.045436842 -37.665258 -4.9505582e-16 -2.9610234
0.68449461 -0.05 -0.045927574 -37.003955 -7.0617789e-16 -2.8745556
0.67823596 -0.05 -0.046412511 -36.344978 1.6514709e-16 -2.789384
0.67197687 -0.05 -0.046891661 -35.687934 -4.0966269e-16 -2.7053971
0.66571733 -0.05 -0.047364909 -35.030998 6.1082584e-16 -2.6220111
0.65945733 -0.05 -0.047832155 -34.374269 -9.1482055e-16 -2.5400294
0.65319689 -0.05 -0.048293483 -33.719705 -2.8852743e-16 -2.4591822
0.64693601 -0.05 -0.048748807 -33.06872 1.7907101e-16 -2.3789955
0.64067469 -0.05 -0.04919796 -32.422529 -6.6784443e-16 -2.3001016
0.63441293 -0.05 -0.049640911 -31.781976 2.1218798e-16 -2.2228072
0.62815073 -0.05 -0.050077661 -31.148947 1.9791655e-16 -2.1469591
0.62188809 -0.05 -0.050508073 -30.522783 3.5535337e-17 -2.0722585
0.61562501 -0.05 -0.050932062 -29.902924 5.5256738e-16 -1.9992501
0.60936151 -0.05 -0.051349624 -29.288511 -4.564897e-16 -1.9275197
0.60309756 -0.05 -0.051760616 -28.6769 8.9367221e-16 -1.8569551
0.59683319 -0.05 -0.052164966 -28.063624 -2.709836e-16 -1.7875797
0.59056838 -0.05 -0.052562589 -27.44269 1.932081e-16 -1.7186524
0.58430315 -0.05 -0.052953394 -26.80972 -8.7921713e-17 -1.6500314
0.57803748 -0.05 -0.053337266 -26.16646 -3.4471712e-16 -1.5812913
0.57177139 -0.05 -0.053714062 -25.523329 3.1410274e-16 -1.5133834
0.56550488 -0.05 -0.054083746 -24.893683 -2.3249018e-16 -1.4470943
0.55923794 -0.05 -0.054446197 -24.279273 2.2079624e-16 -1.3825443
0.55297057 -0.05 -0.054801255 -23.680586 2.1785361e-16 -1.3201535
0.5467028 -0.05 -0.055148846 -23.097151 -5.7969617e-16 -1.2603872
0.5404346 -0.05 -0.055488809 -22.526285 1.7496073e-16 -1.2021491
0.53416599 -0.05 -0.055821005 -21.962267 4.5626278e-16 -1.1458169
0.52789696 -0.05 -0.056145362 -21.394675 -2.9927016e-16 -1.090455
0.52162753 -0.05 -0.056461708 -20.808558 -3.6130464e-16 -1.0351749
0.51535769 -0.05 -0.056769903 -20.199152 3.5085961e-16 -0.97935976
0.50908745 -0.05 -0.057069777 -19.594012 2.8677864e-17 -0.92389534
0.5028168 -0.05 -0.057361194 -19.002231 -2.8081268e-16 -0.86954181
0.49654576 -0.05 -0.057644029 -18.424823 2.1335794e-16 -0.81684698
0.49027434 -0.05 -0.057918085 -17.85982 3.0020731e-16 -0.76590068
0.48400253 -0.05 -0.058183158 -17.30554 -2.0079907e-16 -0.71668576
0.47773034 -0.05 -0.058439125 -16.76234 1.3471206e-16 -0.66933653
0.47145778 -0.05 -0.058685847 -16.230093 1.5617997e-16 -0.62354581
0.46518486 -0.05 -0.058923074 -15.708033 4.0037148e-17 -0.57930332
0.45891157 -0.05 -0.059150591 -15.195477 3.1168652e-16 -0.53667015
0.45263793 -0.05 -0.059368237 -14.692343 7.6211e-17 -0.49560333
0.44636395 -0.05 -0.059575828 -14.198675 4.2228849e-17 -0.456003
0.44008964 -0.05 -0.059773138 -13.716759 -2.3924506e-16 -0.41791649
0.43381502 -0.05 -0.059959926 -13.250279 -1.4924623e-16 -0.38136918
0.42754008 -0.05 -0.060135983 -12.801583 -6.8331751e-17 -0.34645937
0.42126484 -0.05 -0.06030111 -12.371546 1.7569164e-17 -0.31311405
0.41498932 -0.05 -0.060455058 -11.961103 -7.2091951e-17 -0.28128844
0.40871352 -0.05 -0.060597549 -11.567774 -8.0184835e-17 -0.25089037
0.40243748 -0.05 -0.060728359 -11.194648 -6.2969828e-17 -0.22179857
0.3961612 -0.05 -0.060847203 -10.84339 1.6473605e-16 -0.19391999
0.38988469 -0.05 -0.060953771 -10.512923 9.6160549e-17 -0.16750545
0.38360799 -0.05 -0.061047849 -10.199596 1.4535787e-17 -0.14240356
0.37733111 -0.05 -0.061129197 -9.9012356 -4.7696828e-18 -0.11841838
0.37105407 -0.05 -0.061197417 -9.6157857 5.3487452e-17 -0.095197369
0.3647769 -0.05 -0.061252188 -9.3423115 8.3993546e-17 -0.073022739
0.35849963 -0.05 -0.06129327 -9.0803629 -4.4014738e-17 -0.050601589
0.35222228 -0.05 -0.061320326 -8.8294618 -2.6512848e-17 -0.027686781
0.34594488 -0.05 -0.061332999 -8.5889883 -6.4642812e-20 -0.006910117
0.33966747 -0.05 -0.061330905 -8.3581257 1.1288667e-18 0.013743828
0.33339009 -0.05 -0.061313713 -8.1367666 -6.1371541e-18 0.034162068
0.32711277 -0.05 -0.061281032 -7.9246589 5.9033036e-17 0.052699654
0.32083555 -0.05 -0.06123244 -7.7205972 2.7120307e-17 0.07052577
0.31455848 -0.05 -0.061167549 -7.5244899 -3.6478855e-17 0.08819465
0.3082816 -0.05 -0.061085942 -7.3387064 1.1661415e-16 0.1054847
0.30200498 -0.05 -0.060987188 -7.1903924 -6.2020077e-17 0.12225178
0.29827709 -0.05 0.059109651 -7.1240363 -7.1387948e-18 0.10855672
0.29264061 -0.05 0.059201861 -7.4285195 3.2684411e-17 0.094076622
0.28708505 -0.05 0.059278175 -7.6990445 -1.9470497e-17 0.078146608
0.28160928 -0.05 0.059338827 -7.9705577 -4.1931237e-17 0.060885571
0.27621218 -0.05 0.059384104 -8.2424968 -3.7686774e-18 0.039803837
0.27089268 -0.05 0.059414324 -8.5167168 -9.7396846e-18 0.01703598
0.26564969 -0.05 0.059429783 -8.7918594 -4.6929182e-18 -0.0072764605
0.26048214 -0.05 0.059430745 -9.0664236 1.7179471e-18 -0.033903276
0.25538901 -0.05 0.05941752 -9.3410429 -3.2979877e-17 -0.061851872
0.25036923 -0.05 0.059390373 -9.6165949 -1.5862223e-17 -0.089731112
0.24542182 -0.05 0.059349507 -9.8915674 -4.8275669e-17 -0.11982824
0.24054576 -0.05 0.059295222 -10.165746 4.9713534e-17 -0.15181007
0.23574007 -0.05 0.059227777 -10.437843 4.2368991e-17 -0.18608055
0.23100376 -0.05 0.059147454 -10.706217 3.761274e-18 -0.22225863
0.22633589 -0.05 0.059054518 -10.971058 2.0085244e-17 -0.26037837
0.22173551 -0.05 0.058949156 -11.23169 4.6929636e-17 -0.3004216
0.21720168 -0.05 0.058831652 -11.487359 -9.0777081e-17 -0.34210011
0.21273349 -0.05 0.058702246 -11.736278 1.1292284e-16 -0.38581201
0.20833004 -0.05 0.058561088 -11.977383 -4.0954619e-17 -0.43124649
0.20399042 -0.05 0.058408461 -12.212995 4.874427e-17 -0.47843632
0.19971376 -0.05 0.058244595 -12.445539 -3.9805776e-17 -0.52753204
0.19549921 -0.05 0.05806974 -12.679691 1.4274524e-16 -0.57831064
0.1913459 -0.05 0.057884115 -12.917035 -2.5423492e-16 -0.63109949
0.18725298 -0.05 0.05768782 -13.152999 2.52237e-16 -0.68540883
0.18321964 -0.05 0.057481125 -13.382279 -2.1566689e-17 -0.74085007
0.17924505 -0.05 0.057264236 -13.597633 -3.9549001e-17 -0.79802392
0.17532843 -0.05 0.057037332 -13.7929 -2.8167023e-16 -0.85691685
0.17146896 -0.05 0.056800633 -13.965693 -1.6931869e-16 -0.91842398
0.16766585 -0.05 0.056554317 -14.129938 1.2778633e-16 -0.98342146
0.16391836 -0.05 0.056298538 -14.299113 -9.2964312e-16 -1.0524927
0.16022574 -0.05 0.05603344 -14.485266 -6.0202537e-16 -1.1253819
0.15658721 -0.05 0.055759262 -14.68924 -5.1886447e-16 -1.2020433
0.15300205 -0.05 0.055476132 -14.904814 -2.8089067e-16 -1.2823766
0.14946955 -0.05 0.055184207 -15.129962 -3.6807001e-16 -1.3660716
0.14598897 -0.05 0.05488365 -15.366732 -3.1251618e-16 -1.4536351
0.14255963 -0.05 0.054574569 -15.619461 5.2817491e-16 -1.5448643
0.13918083 -0.05 0.054257133 -15.893828 -2.0172294e-16 -1.6403635
0.1358519 -0.05 0.053931475 -16.189757 6.3072782e-16 -1.7406345
0.13257217 -0.05 0.053597773 -16.501506 -3.3965859e-16 -1.8457295
0.12934096 -0.05 0.053256151 -16.82169 5.3925815e-16 -1.9558972
0.12615765 -0.05 0.052906649 -17.142722 4.9452533e-16 -2.0699097
0.12302158 -0.05 0.05254946 -17.46176 5.2094972e-16 -2.1875842
0.11993212 -0.05 0.052184717 -17.776828 -3.6236141e-16 -2.3094579
0.11688866 -0.05 0.051812449 -18.08486 2.404957e-16 -2.4349415
0.11389062 -0.05 0.051432739 -18.384554 2.720663e-16 -2.5636705
0.11093738 -0.05 0.05104573 -18.675232 3.9998804e-17 -2.6957391
0.10802836 -0.05 0.050651466 -18.955551 9.7187091e-17 -2.8311193
0.10516299 -0.05 0.050250049 -19.225262 3.0861616e-16 -2.9697255
0.10234068 -0.05 0.049841646 -19.485274 -2.5553197e-16 -3.1126124
0.099560885 -0.05 0.049426207 -19.7331 1.40242e-16 -3.2586233
0.096823081 -0.05 0.049003796 -19.968694 -3.5380328e-16 -3.4073104
0.094126707 -0.05 0.048574565 -20.193432 2.2098854e-16 -3.5599218
0.091471263 -0.05 0.04813844 -20.405045 -8.04281e-16 -3.7155996
0.088856229 -0.05 0.047695493 -20.604367 -1.2361112e-16 -3.8739548
0.086281096 -0.05 0.047245797 -20.792198 -4.5637777e-16 -4.035727
0.083745369 -0.05 0.046789388 -20.968689 -6.0936847e-16 -4.2007179
0.081248562 -0.05 0.046326315 -21.133976 3.4727384e-16 -4.3698568
0.078790226 -0.05 0.04585648 -21.28578 -6.5690567e-17 -4.5420411
0.076369902 -0.05 0.045379881 -21.424163 -7.545263e-16 -4.7168135
0.073987126 -0.05 0.044896597 -21.550523 7.848555e-16 -4.8948997
0.071641453 -0.05 0.044406655 -21.664729 5.9282298e-16 -5.0771246
0.069332475 -0.05 0.043909946 -21.764849 2.887549e-16 -5.2626584
0.067059781 -0.05 0.043406437 -21.851188 4.4576092e-16 -5.4513343
0.064822961 -0.05 0.042896129 -21.924001 -5.4705218e-16 -5.6438411
0.062621635 -0.05 0.042378934 -21.982217 4.203479e-16 -5.8399125
0.060455434 -0.05 0.041854773 -22.025301 -4.787663e-16 -6.0392704
0.058323994 -0.05 0.041323589 -22.053148 -2.426651e-16 -6.2420871
0.056226972 -0.05 0.040785284 -22.065247 5.2591975e-16 -6.4481171
0.054164019 -0.05 0.040239829 -22.062488 -2.7272329e-16 -6.6585685
0.052134838 -0.05 0.039687037 -22.042 7.9817396e-16 -6.8722966
0.05013914 -0.05 0.039126761 -22.004241 -3.7177217e-16 -7.0889526
0.04817662 -0.05 0.03855894 -21.94945 -3.0813576e-16 -7.309541
0.046247022 -0.05 0.037983394 -21.877104 -4.2803835e-16 -7.5342001
0.044350106 -0.05 0.037399938 -21.785887 1.1769383e-16 -7.7628261
0.042485678 -0.05 0.036808299 -21.673739 5.8622313e-16 -7.993909
0.040653535 -0.05 0.036208286 -21.540971 5.0511221e-16 -8.2274967
0.038853478 -0.05 0.035599751 -21.38818 -1.0618083e-15 -8.4649147
0.037085371 -0.05 0.03498241 -21.213496 1.2106804e-15 -8.7054246
0.035349105 -0.05 0.034355956 -21.015835 -1.3885746e-16 -8.9485906
0.033644605 -0.05 0.033720076 -20.793953 -7.2865035e-16 -9.1936281
0.031971813 -0.05 0.033074457 -20.547676 6.8602986e-16 -9.4408586
0.030330718 -0.05 0.032418743 -20.275383 6.5588675e-16 -9.6894038
0.028721371 -0.05 0.031752503 -19.975612 -3.2115636e-17 -9.9383816
0.027143836 -0.05 0.031075354 -19.647484 5.9538024e-16 -10.187634
0.025598256 -0.05 0.030386811 -19.28899 -2.3887892e-16 -10.435305
0.024084836 -0.05 0.029686351 -18.898824 3.3484951e-16 -10.680255
0.022603829 -0.05 0.028973464 -18.475643 -1.1857033e-15 -10.921401
0.02115561 -0.05 0.028247515 -18.017418 6.0607132e-16 -11.155666
0.019740578 -0.05 0.027507928 -17.523693 4.2714908e-16 -11.383039
0.018359298 -0.05 0.026753971 -16.991087 -2.6779521e-16 -11.597985
0.01701242 -0.05 0.025984876 -16.418038 -4.1675762e-16 -11.798322
0.015700688 -0.05 0.025199889 -15.803357 1.9810712e-16 -11.979826
0.014425034 -0.05 0.024398152 -15.14516 -9.1475564e-16 -12.13833
0.013186571 -0.05 0.023578788 -14.441808 1.2393818e-15 -12.267284
0.011986606 -0.05 0.022740883 -13.691916 -3.0206061e-16 -12.36131
0.010826675 -0.05 0.021883419 -12.894467 9.9896898e-18 -12.411183
0.0097085082 -0.05 0.021005315 -12.04931 2.9236143e-16 -12.408984
0.0086341568 -0.05 0.020105681 -11.156879 2.8968704e-16 -12.344151
0.0076060957 -0.05 0.019183637 -10.216547 3.0108131e-16 -12.202819
0.0066270382 -0.05 0.018238052 -9.2352992 4.9875761e-16 -11.972399
0.0057000288 -0.05 0.017268142 -8.2230572 2.5144786e-16 -11.64329
0.0048287968 -0.05 0.016273678 -7.1860625 4.9192411e-16 -11.205124
0.0040172052 -0.05 0.015254215 -6.1390089 2.5345263e-17 -10.632058
0.0032693439 -0.05 0.014209857 -5.1044068 1.3844361e-16 -9.9150155
0.0025899749 -0.05 0.013141837 -4.1049493 1.2539049e-16 -9.0571601
0.0019836984 -0.05 0.012051546 -3.1676572 -1.9551346e-17 -8.0611567
0.0014548995 -0.05 0.010941402 -2.3171245 2.7860323e-16 -6.9442507
0.001007578 -0.05 0.0098153698 -1.5764219 -1.6479103e-17 -5.7407578
0.00064489357 -0.05 0.0086777929 -0.97933224 -1.4896146e-17 -4.4946701
0.00036869581 -0.05 0.0075339432 -0.57350349 -1.9787132e-16 -3.2631834
0.00017917897 -0.05 0.0063898761 -0.33041923 4.9989976e-17 -2.086914
7.4957775e-05 -0.05 0.0052516833 -0.19263669 -2.5126652e-17 -1.1492144
0.99677095 -0.05 -0.013546681 0.27073282 -3.5392385e-16 0.14893677
0.99057568 -0.05 -0.012534548 0.017031767 -5.1865409e-16 -0.0021552889
0.98437926 -0.05 -0.011529384 0.017082801 -1.5056763e-16 -0.0020734006
0.97818172 -0.05 -0.01053116 0.0073894816 -1.1710986e-16 -0.00052564
0.97198309 -0.05 -0.0095397708 0.012440745 7.2938464e-16 -0.0013052327
0.96578339 -0.05 -0.0085550589 0.010768624 1.9787517e-16 -0.0009829739
0.95958264 -0.05 -0.0075770413 0.0120068 -5.4667072e-16 -0.0011633582
0.95338084 -0.05 -0.0066056547 0.011801981 7.0391374e-16 -0.0011318566
0.94717803 -0.05 -0.0056407451 0.012322411 -9.424466e-16 -0.0011540738
0.94097423 -0.05 -0.0046822282 0.012428277 -2.8767307e-16 -0.0011408981
0.93476945 -0.05 -0.0037300993 0.012804348 4.2553836e-16 -0.0011760513
0.9285637 -0.05 -0.0027842985 0.013177617 8.5845875e-16 -0.0011846863
0.922357 -0.05 -0.0018447496 0.013699808 4.4328342e-16 -0.0012176847
0.91614936 -0.05 -0.00091141776 0.014279726 -8.3409029e-17 -0.0012093943
0.90994081 -0.05 1.5847545e-05 0.015140452 -5.2702709e-16 -0.0010797681
0.90373136 -0.05 0.0009370437 0.02077826 -1.1472507e-16 -0.0013306229
0.89752101 -0.05 0.0018522019 0.021340856 2.6083617e-16 -0.0013616316
0.89130981 -0.05 0.0027614579 0.022652074 7.7661318e-16 -0.0021251932
0.88509774 -0.05 0.003664825 0.019323673 5.2922646e-16 -0.0017817139
0.8788848 -0.05 0.0045622468 0.021311895 -4.261356e-18 -0.0021158213
0.87267103 -0.05 0.0054538601 0.017684235 -2.4990339e-16 -0.0016096696
0.86645644 -0.05 0.0063397329 0.019192253 3.3538598e-16 -0.0017720974
0.86024103 -0.05 0.0072198364 0.016871815 6.0432499e-16 -0.0015594365
0.85402482 -0.05 0.008094257 0.016535609 -3.0633753e-17 -0.0014478325
0.84780782 -0.05 0.0089630569 0.015340727 3.0417965e-16 -0.0012537668
0.84159004 -0.05 0.0098262224 0.013356944 -2.7303602e-16 -0.00093505822
0.83537147 -0.05 0.010683717 0.010917142 2.239216e-16 -0.00059472581
0.82915214 -0.05 0.011535716 0.0080605184 -3.8953132e-16 -0.00021457742
0.82293206 -0.05 0.01238218 0.0048209471 -5.8681424e-16 0.00021473339
0.81671123 -0.05 0.01322306 0.0012251348 8.7499887e-16 0.00064600958
0.81048965 -0.05 0.014058438 -0.0026326864 7.0295231e-17 0.0010128892
0.80426734 -0.05 0.014888322 -0.0055408171 3.7811042e-16 0.0013869139
0.79804429 -0.05 0.015712744 -0.0085972769 2.7364232e-16 0.0017751203
0.79182052 -0.05 0.01653166 -0.011910974 -5.3158904e-16 0.0021894467
0.78559605 -0.05 0.017345153 -0.015549497 -4.2101331e-16 0.0026367407
0.77937087 -0.05 0.018153191 -0.019493085 1.6752202e-17 0.0031203527
0.77314497 -0.05 0.018955743 -0.023741741 1.9427094e-16 0.0036370161
0.76691837 -0.05 0.019752866 -0.028355586 9.683554e-16 0.0041979839
0.76069108 -0.05 0.020544549 -0.033339777 3.1945411e-16 0.0047943758
0.7544631 -0.05 0.02133078 -0.038748299 -5.706022e-16 0.0054331087
0.74823443 -0.05 0.022111532 -0.044637102 -2.9130443e-16 0.0061179806
0.74200508 -0.05 0.022886789 -0.051072692 -3.8425216e-16 0.006855782
0.73577504 -0.05 0.023656537 -0.058109669 3.4329606e-16 0.007651264
0.72954432 -0.05 0.02442074 -0.065725048 1.0665159e-15 0.0085042994
0.72331293 -0.05 0.02517943 -0.073945356 5.6759675e-16 0.009415598
0.71708087 -0.05 0.025932639 -0.082872291 3.3468993e-16 0.010391026
0.71084812 -0.05 0.026680191 -0.092395292 -1.3273227e-16 0.011424765
0.70461472 -0.05 0.027422137 -0.1025941 -2.1356222e-16 0.012510807
0.69838063 -0.05 0.028158443 -0.11353058 -5.3638735e-16 0.013669647
0.69214588 -0.05 0.028889016 -0.12511315 -9.5067702e-16 0.014875891
0.68591047 -0.05 0.029613912 -0.13754546 -6.1339761e-16 0.016157867
0.67967438 -0.05 0.030333032 -0.15068085 -3.5633185e-16 0.017495317
0.67343763 -0.05 0.031046387 -0.164684 1.1418966e-15 0.018899386
0.66720021 -0.05 0.031753862 -0.17954496 -6.065755e-16 0.020370015
0.66096212 -0.05 0.032455353 -0.19518697 -3.7471997e-16 0.021899881
0.65472337 -0.05 0.033150949 -0.21179669 1.5977873e-17 0.023502208
0.64848396 -0.05 0.033840561 -0.22946774 1.9228073e-16 0.025229786
0.64224386 -0.05 0.034524024 -0.24917421 3.9503461e-17 0.027086701
0.63600309 -0.05 0.035201305 -0.27063376 4.8242493e-16 0.029066509
0.62976166 -0.05 0.035872405 -0.29337983 7.0294576e-17 0.031149405
0.62351954 -0.05 0.036537188 -0.31741452 -2.2792821e-17 0.033316876
0.61727675 -0.05 0.03719557 -0.34272364 -3.2471751e-16 0.035563052
0.61103329 -0.05 0.037847545 -0.36954041 -3.3804298e-16 0.037902818
0.60478915 -0.05 0.038492971 -0.39778516 -5.9585143e-16 0.040325345
0.59854433 -0.05 0.039131776 -0.42764686 -8.0903292e-16 0.042837517
0.59229882 -0.05 0.039763875 -0.45926666 -1.8152445e-17 0.045451266
0.58605263 -0.05 0.040389178 -0.49268391 -1.1239359e-17 0.048160794
0.57980575 -0.05 0.041007568 -0.52799792 -5.6926628e-16 0.050969095
0.57355818 -0.05 0.041618901 -0.56513245 3.1491594e-16 0.053870029
0.56730992 -0.05 0.042223146 -0.60439907 4.6581093e-17 0.056874429
0.56106096 -0.05 0.042820178 -0.64602197 -3.2246834e-17 0.05998515
0.55481131 -0.05 0.043409836 -0.69001119 -1.5533573e-16 0.063207213
0.54856096 -0.05 0.04399205 -0.73657 -4.968127e-16 0.066546079
0.54230991 -0.05 0.044566657 -0.7858423 -2.3377872e-16 0.069999423
0.53605814 -0.05 0.045133516 -0.83795655 -2.4486834e-16 0.073572164
0.52980567 -0.05 0.045692559 -0.89321002 -1.7544033e-16 0.077255624
0.52355249 -0.05 0.046243612 -0.95173826 4.473232e-17 0.081055351
0.5172986 -0.05 0.046786535 -1.0136202 -2.7835249e-16 0.084967387
0.511044 -0.05 0.047321156 -1.0789028 4.7077917e-17 0.088979663
0.50478868 -0.05 0.047847343 -1.1480503 1.5243335e-16 0.09314862
0.49853266 -0.05 0.048364968 -1.2239916 -3.4203601e-17 0.097808998
0.4922759 -0.05 0.048873834 -1.3123046 3.6176314e-16 0.10330527
0.48601842 -0.05 0.049373739 -1.4108934 2.0004779e-16 0.10906444
0.47976023 -0.05 0.049864558 -1.5133459 -4.5235372e-16 0.1146342
0.47350133 -0.05 0.050346152 -1.6198204 9.7723168e-17 0.12017179
0.4672417 -0.05 0.050818272 -1.7310736 -1.3100164e-16 0.12563263
0.46098134 -0.05 0.051280702 -1.8477967 -2.4988972e-16 0.13050499
0.45472027 -0.05 0.051733281 -1.96931 5.8168555e-17 0.13532749
0.44845847 -0.05 0.052175826 -2.0966242 3.0436566e-16 0.14074549
0.44219596 -0.05 0.052608108 -2.2300043 3.6946867e-16 0.14604148
0.43593275 -0.05 0.053029888 -2.3698057 6.5402281e-16 0.15121799
0.42966881 -0.05 0.053440956 -2.5159353 -1.5867933e-16 0.15624681
0.42340416 -0.05 0.053841114 -2.6684308 1.0100828e-16 0.1610738
0.41713881 -0.05 0.054230109 -2.8273455 -4.4354242e-17 0.16561726
0.41087277 -0.05 0.054607668 -2.9930646 -1.0494413e-16 0.16984019
0.40460604 -0.05 0.054973562 -3.1658664 -7.1815157e-18 0.17372941
0.39833861 -0.05 0.055327507 -3.3453889 -2.5220346e-16 0.17716756
0.39207051 -0.05 0.055669194 -3.5311542 -4.7272568e-17 0.18010736
0.38580174 -0.05 0.055998407 -3.7240331 -9.4034653e-18 0.18250432
0.37953232 -0.05 0.056314906 -3.9245987 -1.5858366e-16 0.18427208
0.37326224 -0.05 0.056618292 -4.1322078 1.4668976e-16 0.18528759
0.36699154 -0.05 0.056908243 -4.3461963 1.9267797e-16 0.18556404
0.36072021 -0.05 0.057184518 -4.5674883 -2.7427777e-16 0.18494192
0.35444828 -0.05 0.05744678 -4.7963215 1.6828516e-16 0.18334844
0.34817577 -0.05 0.057694672 -5.032737 -3.8287432e-17 0.18069904
0.34190269 -0.05 0.057927806 -5.2760423 1.7415805e-16 0.17689572
0.33562907 -0.05 0.058145852 -5.5261986 2.3998441e-16 0.17184233
0.32935494 -0.05 0.058348419 -5.7834018 1.7020868e-16 0.16530379
0.32308031 -0.05 0.058535082 -6.0479408 2.9996542e-16 0.15731846
0.31680521 -0.05 0.05870545 -6.3196561 8.0226976e-17 0.14778354
0.31052969 -0.05 0.058859109 -6.5980736 -1.4957802e-17 0.13674049
0.30425377 -0.05 0.058995623 -6.8528518 -9.4187473e-18 0.12316767
