# yPlus  FACE_DATA 448
# x y z  yPlus
0.29602823 -0.05 -0.060877179 22.862005
0.29039225 -0.05 -0.060758113 22.428856
0.28483773 -0.05 -0.060626195 22.108703
0.27936353 -0.05 -0.060481617 21.795579
0.27396853 -0.05 -0.060324622 21.497338
0.26865163 -0.05 -0.060155488 21.211617
0.26341174 -0.05 -0.05997447 20.939124
0.25824779 -0.05 -0.059781793 20.679005
0.25315873 -0.05 -0.059577727 20.431932
0.2481435 -0.05 -0.059362498 20.197381
0.24320109 -0.05 -0.059136271 19.973955
0.23833049 -0.05 -0.058899308 19.760467
0.2335307 -0.05 -0.058651831 19.555394
0.22880073 -0.05 -0.058394086 19.357207
0.22413962 -0.05 -0.0581263 19.167719
0.21954642 -0.05 -0.057848626 18.985837
0.21502018 -0.05 -0.057561313 18.811896
0.21055998 -0.05 -0.057264566 18.646285
0.2061649 -0.05 -0.0569585 18.487397
0.20183405 -0.05 -0.056643366 18.335695
0.19756654 -0.05 -0.05631936 18.191246
0.1933615 -0.05 -0.055986699 18.054065
0.18921805 -0.05 -0.055645571 17.924695
0.18513536 -0.05 -0.055296045 17.801122
0.1811126 -0.05 -0.054938357 17.683345
0.17714894 -0.05 -0.054572686 17.572246
0.17324356 -0.05 -0.054199176 17.466395
0.16939567 -0.05 -0.053818021 17.367024
0.16560447 -0.05 -0.053429368 17.272894
0.1618692 -0.05 -0.053033342 17.184018
0.1581891 -0.05 -0.052630059 17.099039
0.1545634 -0.05 -0.052219731 17.019043
0.15099137 -0.05 -0.051802457 16.944215
0.14747228 -0.05 -0.051378367 16.873675
0.14400541 -0.05 -0.050947597 16.80803
0.14059007 -0.05 -0.050510228 16.745976
0.13722554 -0.05 -0.050066406 16.687974
0.13391115 -0.05 -0.049616233 16.634911
0.13064622 -0.05 -0.049159867 16.588085
0.12743008 -0.05 -0.048697406 16.550195
0.1242621 -0.05 -0.048228863 16.521368
0.12114162 -0.05 -0.04775441 16.502766
0.118068 -0.05 -0.047274155 16.491397
0.11504064 -0.05 -0.046788104 16.47769
0.11205892 -0.05 -0.046296318 16.459276
0.10912226 -0.05 -0.045798917 16.441212
0.10623006 -0.05 -0.045295923 16.425661
0.10338174 -0.05 -0.044787416 16.411287
0.10057671 -0.05 -0.044273542 16.401867
0.097814442 -0.05 -0.04375423 16.396389
0.095094387 -0.05 -0.043229525 16.392752
0.092415992 -0.05 -0.042699558 16.392762
0.089778755 -0.05 -0.042164234 16.394605
0.087182156 -0.05 -0.041623607 16.396186
0.084625682 -0.05 -0.041077732 16.40266
0.082108839 -0.05 -0.040526624 16.4128
0.079631139 -0.05 -0.039970315 16.430029
0.077192135 -0.05 -0.039408691 16.44831
0.07479137 -0.05 -0.038841733 16.464823
0.072428376 -0.05 -0.038269501 16.479185
0.070102709 -0.05 -0.037692005 16.493125
0.067813966 -0.05 -0.037109124 16.506484
0.065561736 -0.05 -0.036520806 16.521766
0.063345609 -0.05 -0.035927037 16.543537
0.06116521 -0.05 -0.035327717 16.570137
0.059020172 -0.05 -0.034722753 16.598456
0.056910133 -0.05 -0.034112073 16.627422
0.054834755 -0.05 -0.033495566 16.657685
0.052793689 -0.05 -0.032873191 16.690336
0.050786649 -0.05 -0.03224475 16.726963
0.048813347 -0.05 -0.031610085 16.759144
0.046873483 -0.05 -0.030969123 16.791233
0.044966806 -0.05 -0.030321674 16.822564
0.043093087 -0.05 -0.029667547 16.858496
0.041252139 -0.05 -0.02900646 16.900662
0.039443766 -0.05 -0.028338214 16.946891
0.037667776 -0.05 -0.027662655 16.992799
0.035924043 -0.05 -0.026979492 17.039986
0.034212472 -0.05 -0.026288417 17.08335
0.032532996 -0.05 -0.025589113 17.124219
0.030885572 -0.05 -0.024881264 17.165181
0.0292702 -0.05 -0.024164516 17.206339
0.027686949 -0.05 -0.023438438 17.227166
0.026135896 -0.05 -0.022702652 17.233894
0.024617204 -0.05 -0.021956675 17.244493
0.023131094 -0.05 -0.021199996 17.271769
0.02167784 -0.05 -0.020432112 17.29925
0.020257841 -0.05 -0.019652406 17.273024
0.018871516 -0.05 -0.018860314 17.150706
0.017519458 -0.05 -0.018055128 16.952972
0.016202346 -0.05 -0.017236103 16.713229
0.01492095 -0.05 -0.016402515 16.53198
0.013676235 -0.05 -0.015553539 16.499888
0.012469344 -0.05 -0.014688342 16.608135
0.01130162 -0.05 -0.013806061 16.859335
0.010174635 -0.05 -0.012905734 17.261662
0.0090901583 -0.05 -0.011986346 17.85424
0.0080502726 -0.05 -0.011047086 18.605913
0.0070574845 -0.05 -0.010087167 19.259345
0.0061145476 -0.05 -0.0091055573 19.737927
0.0052245338 -0.05 -0.0081015917 20.006587
0.0043911782 -0.05 -0.0070751796 20.033689
0.0036183581 -0.05 -0.0060260207 19.741966
0.0029101563 -0.05 -0.0049543723 19.166948
0.0022712853 -0.05 -0.0038616453 18.28483
0.0017062899 -0.05 -0.0027494013 17.009946
0.0012194619 -0.05 -0.0016202218 15.322451
0.00081464924 -0.05 -0.0004782185 13.116141
0.00049484694 -0.05 0.0006721501 10.167424
0.00026170555 -0.05 0.0018255461 7.2173184
0.00011519236 -0.05 0.0029759113 3.0268268
5.3694789e-05 -0.05 0.0041172101 5.9650353
0.9967541 -0.05 -0.014445876 65.04037
0.99052525 -0.05 -0.015225147 69.530477
0.98429551 -0.05 -0.015997413 70.64893
0.97806492 -0.05 -0.016762702 70.232473
0.9718335 -0.05 -0.01752112 70.103527
0.96560126 -0.05 -0.018272824 69.890646
0.95936821 -0.05 -0.0190178 69.682139
0.95313437 -0.05 -0.01975611 69.459739
0.94689976 -0.05 -0.02048791 69.230134
0.9406644 -0.05 -0.021213285 68.992448
0.93442829 -0.05 -0.021932239 68.74751
0.92819145 -0.05 -0.022644833 68.49596
0.9219539 -0.05 -0.023351145 68.23833
0.91571565 -0.05 -0.024051207 67.974693
0.90947672 -0.05 -0.024745174 67.705254
0.9032371 -0.05 -0.025433043 67.430431
0.89699684 -0.05 -0.026114844 67.149943
0.89075592 -0.05 -0.026790715 66.864399
0.88451436 -0.05 -0.027460669 66.573893
0.87827216 -0.05 -0.028124649 66.278135
0.87202935 -0.05 -0.028782793 65.977188
0.86578592 -0.05 -0.02943517 65.670922
0.8595419 -0.05 -0.030081752 65.359504
0.85329729 -0.05 -0.030722623 65.042392
0.8470521 -0.05 -0.031357849 64.719426
0.84080634 -0.05 -0.031987416 64.390554
0.83456001 -0.05 -0.032611286 64.05473
0.82831312 -0.05 -0.033229636 63.712324
0.8220657 -0.05 -0.033842425 63.361875
0.81581772 -0.05 -0.034449608 63.002549
0.80956921 -0.05 -0.035051264 62.633111
0.80332016 -0.05 -0.035647402 62.25185
0.7970706 -0.05 -0.036238055 61.855916
0.79082052 -0.05 -0.036823178 61.441177
0.78456994 -0.05 -0.037402856 61.00146
0.77831884 -0.05 -0.037977057 60.526385
0.77206724 -0.05 -0.038545747 60.001562
0.76581515 -0.05 -0.039108988 59.4122
0.75956256 -0.05 -0.039666764 58.755018
0.75330949 -0.05 -0.040219068 58.059945
0.74705595 -0.05 -0.040765871 57.379367
0.74080192 -0.05 -0.041307157 56.747739
0.73454741 -0.05 -0.041842912 56.17598
0.72829242 -0.05 -0.042373099 55.666848
0.72203698 -0.05 -0.042897755 55.186829
0.71578108 -0.05 -0.043416906 54.709723
0.7095247 -0.05 -0.04393038 54.236246
0.70326786 -0.05 -0.044438226 53.767858
0.69701057 -0.05 -0.044940411 53.302026
0.69075282 -0.05 -0.045436842 52.836071
0.68449461 -0.05 -0.045927574 52.369149
0.67823596 -0.05 -0.046412511 51.899775
0.67197687 -0.05 -0.046891661 51.427423
0.66571733 -0.05 -0.047364909 50.951147
0.65945733 -0.05 -0.047832155 50.470339
0.65319689 -0.05 -0.048293483 49.986673
0.64693601 -0.05 -0.048748807 49.501181
0.64067469 -0.05 -0.04919796 49.01464
0.63441293 -0.05 -0.049640911 48.527548
0.62815073 -0.05 -0.050077661 48.041213
0.62188809 -0.05 -0.050508073 47.555355
0.61562501 -0.05 -0.050932062 47.069647
0.60936151 -0.05 -0.051349624 46.583286
0.60309756 -0.05 -0.051760616 46.094149
0.59683319 -0.05 -0.052164966 45.598196
0.59056838 -0.05 -0.052562589 45.09069
0.58430315 -0.05 -0.052953394 44.567479
0.57803748 -0.05 -0.053337266 44.029385
0.57177139 -0.05 -0.053714062 43.48457
0.56550488 -0.05 -0.054083746 42.944468
0.55923794 -0.05 -0.054446197 42.410748
0.55297057 -0.05 -0.054801255 41.884182
0.5467028 -0.05 -0.055148846 41.364542
0.5404346 -0.05 -0.055488809 40.849856
0.53416599 -0.05 -0.055821005 40.33494
0.52789696 -0.05 -0.056145362 39.810127
0.52162753 -0.05 -0.056461708 39.260958
0.51535769 -0.05 -0.056769903 38.681809
0.50908745 -0.05 -0.057069777 38.097952
0.5028168 -0.05 -0.057361194 37.518229
0.49654576 -0.05 -0.057644029 36.943835
0.49027434 -0.05 -0.057918085 36.373087
0.48400253 -0.05 -0.058183158 35.804372
0.47773034 -0.05 -0.058439125 35.238234
0.47145778 -0.05 -0.058685847 34.674626
0.46518486 -0.05 -0.058923074 34.112894
0.45891157 -0.05 -0.059150591 33.552264
0.45263793 -0.05 -0.059368237 32.992774
0.44636395 -0.05 -0.059575828 32.434444
0.44008964 -0.05 -0.059773138 31.880061
0.43381502 -0.05 -0.059959926 31.334097
0.42754008 -0.05 -0.060135983 30.800059
0.42126484 -0.05 -0.06030111 30.279402
0.41498932 -0.05 -0.060455058 29.774317
0.40871352 -0.05 -0.060597549 29.282084
0.40243748 -0.05 -0.060728359 28.80747
0.3961612 -0.05 -0.060847203 28.353498
0.38988469 -0.05 -0.060953771 27.920089
0.38360799 -0.05 -0.061047849 27.502738
0.37733111 -0.05 -0.061129197 27.099701
0.37105407 -0.05 -0.061197417 26.708337
0.3647769 -0.05 -0.061252188 26.328244
0.35849963 -0.05 -0.06129327 25.958687
0.35222228 -0.05 -0.061320326 25.599942
0.34594488 -0.05 -0.061332999 25.251087
0.33966747 -0.05 -0.061330905 24.911806
0.33339009 -0.05 -0.061313713 24.581929
0.32711277 -0.05 -0.061281032 24.261614
0.32083555 -0.05 -0.06123244 23.94941
0.31455848 -0.05 -0.061167549 23.64576
0.3082816 -0.05 -0.061085942 23.354539
0.30200498 -0.05 -0.060987188 23.175095
0.29827709 -0.05 0.059109651 22.883537
0.29264061 -0.05 0.059201861 23.304197
0.28708505 -0.05 0.059278175 23.613064
0.28160928 -0.05 0.059338827 23.915084
0.27621218 -0.05 0.059384104 24.209776
0.27089268 -0.05 0.059414324 24.500504
0.26564969 -0.05 0.059429783 24.785127
0.26048214 -0.05 0.059430745 25.062688
0.25538901 -0.05 0.05941752 25.333855
0.25036923 -0.05 0.059390373 25.600443
0.24542182 -0.05 0.059349507 25.860868
0.24054576 -0.05 0.059295222 26.115419
0.23574007 -0.05 0.059227777 26.362598
0.23100376 -0.05 0.059147454 26.600932
0.22633589 -0.05 0.059054518 26.830959
0.22173551 -0.05 0.058949156 27.052741
0.21720168 -0.05 0.058831652 27.265199
0.21273349 -0.05 0.058702246 27.46718
0.20833004 -0.05 0.058561088 27.657737
0.20399042 -0.05 0.058408461 27.83986
0.19971376 -0.05 0.058244595 28.016884
0.19549921 -0.05 0.05806974 28.194123
0.1913459 -0.05 0.057884115 28.373565
0.18725298 -0.05 0.05768782 28.55025
0.18321964 -0.05 0.057481125 28.718155
0.17924505 -0.05 0.057264236 28.870527
0.17532843 -0.05 0.057037332 29.000633
0.17146896 -0.05 0.056800633 29.107149
0.16766585 -0.05 0.056554317 29.204763
0.16391836 -0.05 0.056298538 29.308205
0.16022574 -0.05 0.05603344 29.429371
0.15658721 -0.05 0.055759262 29.568592
0.15300205 -0.05 0.055476132 29.719848
0.14946955 -0.05 0.055184207 29.880075
0.14598897 -0.05 0.05488365 30.05158
0.14255963 -0.05 0.054574569 30.238083
0.13918083 -0.05 0.054257133 30.444646
0.1358519 -0.05 0.053931475 30.67131
0.13257217 -0.05 0.053597773 30.910906
0.12934096 -0.05 0.053256151 31.157259
0.12615765 -0.05 0.052906649 31.402799
0.12302158 -0.05 0.05254946 31.644188
0.11993212 -0.05 0.052184717 31.880626
0.11688866 -0.05 0.051812449 32.109503
0.11389062 -0.05 0.051432739 32.329778
0.11093738 -0.05 0.05104573 32.540589
0.10802836 -0.05 0.050651466 32.742385
0.10516299 -0.05 0.050250049 32.933157
0.10234068 -0.05 0.049841646 33.115328
0.099560885 -0.05 0.049426207 33.288074
0.096823081 -0.05 0.049003796 33.449174
0.094126707 -0.05 0.048574565 33.60122
0.091471263 -0.05 0.04813844 33.744027
0.088856229 -0.05 0.047695493 33.875203
0.086281096 -0.05 0.047245797 33.998818
0.083745369 -0.05 0.046789388 34.112125
0.081248562 -0.05 0.046326315 34.218472
0.078790226 -0.05 0.04585648 34.315323
0.076369902 -0.05 0.045379881 34.402145
0.073987126 -0.05 0.044896597 34.479558
0.071641453 -0.05 0.044406655 34.549367
0.069332475 -0.05 0.043909946 34.610413
0.067059781 -0.05 0.043406437 34.661466
0.064822961 -0.05 0.042896129 34.704125
0.062621635 -0.05 0.042378934 34.738222
0.060455434 -0.05 0.041854773 34.763018
0.058323994 -0.05 0.041323589 34.778607
0.056226972 -0.05 0.040785284 34.785336
0.054164019 -0.05 0.040239829 34.782431
0.052134838 -0.05 0.039687037 34.773156
0.05013914 -0.05 0.039126761 34.751691
0.04817662 -0.05 0.03855894 34.723183
0.046247022 -0.05 0.037983394 34.685535
0.044350106 -0.05 0.037399938 34.640507
0.042485678 -0.05 0.036808299 34.586749
0.040653535 -0.05 0.036208286 34.522525
0.038853478 -0.05 0.035599751 34.449963
0.037085371 -0.05 0.03498241 34.370888
0.035349105 -0.05 0.034355956 34.282705
0.033644605 -0.05 0.033720076 34.187349
0.031971813 -0.05 0.033074457 34.082973
0.030330718 -0.05 0.032418743 33.972397
0.028721371 -0.05 0.031752503 33.853761
0.027143836 -0.05 0.031075354 33.726919
0.025598256 -0.05 0.030386811 33.594356
0.024084836 -0.05 0.029686351 33.453166
0.022603829 -0.05 0.028973464 33.30488
0.02115561 -0.05 0.028247515 33.149972
0.019740578 -0.05 0.027507928 32.985414
0.018359298 -0.05 0.026753971 32.816671
0.01701242 -0.05 0.025984876 32.633894
0.015700688 -0.05 0.025199889 32.443601
0.014425034 -0.05 0.024398152 32.238914
0.013186571 -0.05 0.023578788 32.021209
0.011986606 -0.05 0.022740883 31.782589
0.010826675 -0.05 0.021883419 31.523765
0.0097085082 -0.05 0.021005315 31.23208
0.0086341568 -0.05 0.020105681 30.900862
0.0076060957 -0.05 0.019183637 30.514966
0.0066270382 -0.05 0.018238052 30.066221
0.0057000288 -0.05 0.017268142 29.531013
0.0048287968 -0.05 0.016273678 28.894818
0.0040172052 -0.05 0.015254215 28.112636
0.0032693439 -0.05 0.014209857 27.152615
0.0025899749 -0.05 0.013141837 25.982794
0.0019836984 -0.05 0.012051546 24.562643
0.0014548995 -0.05 0.010941402 22.848865
0.001007578 -0.05 0.0098153698 20.816138
0.00064489357 -0.05 0.0086777929 18.448437
0.00036869581 -0.05 0.0075339432 15.729923
0.00017917897 -0.05 0.0063898761 12.564069
7.4957775e-05 -0.05 0.0052516833 9.2900486
0.99677095 -0.05 -0.013546681 5.0286745
0.99057568 -0.05 -0.012534548 1.1247039
0.98437926 -0.05 -0.011529384 1.1343856
0.97818172 -0.05 -0.01053116 0.74286131
0.97198309 -0.05 -0.0095397708 0.96600058
0.96578339 -0.05 -0.0085550589 0.89794743
0.95958264 -0.05 -0.0075770413 0.94837061
0.95338084 -0.05 -0.0066056547 0.94063152
0.94717803 -0.05 -0.0056407451 0.96122474
0.94097423 -0.05 -0.0046822282 0.96532645
0.93476945 -0.05 -0.0037300993 0.97866252
0.9285637 -0.05 -0.0027842985 0.99350685
0.922357 -0.05 -0.0018447496 1.0130487
0.91614936 -0.05 -0.00091141776 1.0347052
0.90994081 -0.05 1.5847545e-05 1.0643677
0.90373136 -0.05 0.0009370437 1.2467185
0.89752101 -0.05 0.0018522019 1.263333
0.89130981 -0.05 0.0027614579 1.3038376
0.88509774 -0.05 0.003664825 1.2034081
0.8788848 -0.05 0.0045622468 1.2644015
0.87267103 -0.05 0.0054538601 1.1513196
0.86645644 -0.05 0.0063397329 1.1994852
0.86024103 -0.05 0.0072198364 1.1246443
0.85402482 -0.05 0.008094257 1.1131197
0.84780782 -0.05 0.0089630569 1.0717481
0.84159004 -0.05 0.0098262224 0.99937225
0.83537147 -0.05 0.010683717 0.90265493
0.82915214 -0.05 0.011535716 0.77474711
0.82293206 -0.05 0.01238218 0.59805079
0.81671123 -0.05 0.01322306 0.30932799
0.81048965 -0.05 0.014058438 0.45603075
0.80426734 -0.05 0.014888322 0.65176463
0.79804429 -0.05 0.015712744 0.80860486
0.79182052 -0.05 0.01653166 0.94990595
0.78559605 -0.05 0.017345153 1.0840133
0.77937087 -0.05 0.018153191 1.2127745
0.77314497 -0.05 0.018955743 1.3376243
0.76691837 -0.05 0.019752866 1.4611818
0.76069108 -0.05 0.020544549 1.5838095
0.7544631 -0.05 0.02133078 1.7069249
0.74823443 -0.05 0.022111532 1.831512
0.74200508 -0.05 0.022886789 1.9586016
0.73577504 -0.05 0.023656537 2.0886489
0.72954432 -0.05 0.02442074 2.220822
0.72331293 -0.05 0.02517943 2.3551002
0.71708087 -0.05 0.025932639 2.4927159
0.71084812 -0.05 0.026680191 2.631561
0.70461472 -0.05 0.027422137 2.7725152
0.69838063 -0.05 0.028158443 2.9160587
0.69214588 -0.05 0.028889016 3.060705
0.68591047 -0.05 0.029613912 3.208647
0.67967438 -0.05 0.030333032 3.3578878
0.67343763 -0.05 0.031046387 3.5099083
0.66720021 -0.05 0.031753862 3.6643395
0.66096212 -0.05 0.032455353 3.8200807
0.65472337 -0.05 0.033150949 3.9787927
0.64848396 -0.05 0.033840561 4.1409598
0.64224386 -0.05 0.034524024 4.3146028
0.63600309 -0.05 0.035201305 4.4959823
0.62976166 -0.05 0.035872405 4.6805701
0.62351954 -0.05 0.036537188 4.8679305
0.61727675 -0.05 0.03719557 5.0577087
0.61103329 -0.05 0.037847545 5.2512614
0.60478915 -0.05 0.038492971 5.4476694
0.59854433 -0.05 0.039131776 5.6477885
0.59229882 -0.05 0.039763875 5.8522502
0.58605263 -0.05 0.040389178 6.0607551
0.57980575 -0.05 0.041007568 6.2735976
0.57355818 -0.05 0.041618901 6.4897857
0.56730992 -0.05 0.042223146 6.7108054
0.56106096 -0.05 0.042820178 6.9373382
0.55481131 -0.05 0.043409836 7.1690293
0.54856096 -0.05 0.04399205 7.4062595
0.54230991 -0.05 0.044566657 7.6493548
0.53605814 -0.05 0.045133516 7.8982768
0.52980567 -0.05 0.045692559 8.1539319
0.52355249 -0.05 0.046243612 8.4161933
0.5172986 -0.05 0.046786535 8.6849332
0.511044 -0.05 0.047321156 8.9596951
0.50478868 -0.05 0.047847343 9.2419552
0.49853266 -0.05 0.048364968 9.5423814
0.4922759 -0.05 0.048873834 9.8804769
0.48601842 -0.05 0.049373739 10.244719
0.47976023 -0.05 0.049864558 10.6101
0.47350133 -0.05 0.050346152 10.976963
0.4672417 -0.05 0.050818272 11.347799
0.46098134 -0.05 0.051280702 11.724193
0.45472027 -0.05 0.051733281 12.103788
0.44845847 -0.05 0.052175826 12.489183
0.44219596 -0.05 0.052608108 12.880609
0.43593275 -0.05 0.053029888 13.278335
0.42966881 -0.05 0.053440956 13.681635
0.42340416 -0.05 0.053841114 14.089959
0.41713881 -0.05 0.054230109 14.503181
0.41087277 -0.05 0.054607668 14.921564
0.40460604 -0.05 0.054973562 15.34574
0.39833861 -0.05 0.055327507 15.773995
0.39207051 -0.05 0.055669194 16.20518
0.38580174 -0.05 0.055998407 16.64089
0.37953232 -0.05 0.056314906 17.082318
0.37326224 -0.05 0.056618292 17.527328
0.36699154 -0.05 0.056908243 17.974574
0.36072021 -0.05 0.057184518 18.425506
0.35444828 -0.05 0.05744678 18.880754
0.34817577 -0.05 0.057694672 19.339582
0.34190269 -0.05 0.057927806 19.800827
0.33562907 -0.05 0.058145852 20.263839
0.32935494 -0.05 0.058348419 20.72933
0.32308031 -0.05 0.058535082 21.196954
0.31680521 -0.05 0.05870545 21.666892
0.31052969 -0.05 0.058859109 22.138246
0.30425377 -0.05 0.058995623 22.506073
