# p  FACE_DATA 448
# x y z  p
0.29716095 -0.05 -0.060003952 100000
0.29152372 -0.05 -0.059990521 100000
0.2859677 -0.05 -0.059962714 100000
0.28049175 -0.05 -0.059920743 100000
0.27509477 -0.05 -0.059864875 100000
0.26977563 -0.05 -0.059795406 100000
0.26453326 -0.05 -0.059712612 100000
0.25936661 -0.05 -0.059616738 100000
0.25427461 -0.05 -0.059508073 100000
0.24925623 -0.05 -0.059386864 100000
0.24431045 -0.05 -0.059253294 100000
0.23943627 -0.05 -0.059107644 100000
0.23463269 -0.05 -0.058950155 100000
0.22989872 -0.05 -0.058781092 100000
0.22523341 -0.05 -0.058600699 100000
0.22063581 -0.05 -0.058409148 100000
0.21610498 -0.05 -0.058206703 100000
0.21164 -0.05 -0.057993589 100000
0.20723996 -0.05 -0.057769938 100000
0.20290396 -0.05 -0.057536016 100000
0.19863113 -0.05 -0.057292038 100000
0.1944206 -0.05 -0.057038235 100000
0.19027149 -0.05 -0.056774812 100000
0.18618297 -0.05 -0.056501854 100000
0.18215421 -0.05 -0.056219613 100000
0.17818439 -0.05 -0.055928282 100000
0.1742727 -0.05 -0.055628021 100000
0.17041834 -0.05 -0.05531904 100000
0.16662052 -0.05 -0.055001501 100000
0.16287849 -0.05 -0.054675541 100000
0.15919147 -0.05 -0.054341291 100000
0.15555872 -0.05 -0.053998978 100000
0.15197949 -0.05 -0.053648715 100000
0.14845308 -0.05 -0.053290644 100000
0.14497875 -0.05 -0.052924917 100000
0.1415558 -0.05 -0.052551626 100000
0.13818355 -0.05 -0.05217093 100000
0.13486131 -0.05 -0.051782947 100000
0.1315884 -0.05 -0.051387844 100000
0.12836416 -0.05 -0.050985731 100000
0.12518796 -0.05 -0.050576637 100000
0.12205913 -0.05 -0.050160743 100000
0.11897705 -0.05 -0.04973817 100000
0.11594111 -0.05 -0.049308935 100000
0.11295071 -0.05 -0.04887311 100000
0.11000524 -0.05 -0.048430828 100000
0.10710412 -0.05 -0.04798212 100000
0.10424677 -0.05 -0.047527078 100000
0.1014326 -0.05 -0.047065858 100000
0.09866109 -0.05 -0.046598401 100000
0.09593168 -0.05 -0.04612476 100000
0.093243824 -0.05 -0.045645077 100000
0.090597019 -0.05 -0.045159266 100000
0.087990745 -0.05 -0.044667393 100000
0.08542449 -0.05 -0.04416952 100000
0.082897762 -0.05 -0.043665674 100000
0.080410071 -0.05 -0.043155893 100000
0.077960971 -0.05 -0.042640073 100000
0.075550003 -0.05 -0.042118202 100000
0.073176701 -0.05 -0.041590352 100000
0.070840621 -0.05 -0.041056539 100000
0.068541357 -0.05 -0.04051665 100000
0.066278498 -0.05 -0.03997064 100000
0.064051633 -0.05 -0.039418504 100000
0.061860386 -0.05 -0.038860149 100000
0.059704388 -0.05 -0.038295488 100000
0.057583276 -0.05 -0.037724455 100000
0.055496709 -0.05 -0.037146948 100000
0.05344434 -0.05 -0.03656293 100000
0.051425875 -0.05 -0.03597221 100000
0.049441026 -0.05 -0.035374635 100000
0.047489491 -0.05 -0.034770137 100000
0.045571017 -0.05 -0.034158533 100000
0.043685369 -0.05 -0.033539632 100000
0.041832355 -0.05 -0.032913159 100000
0.040011778 -0.05 -0.032278918 100000
0.03822344 -0.05 -0.031636758 100000
0.036467211 -0.05 -0.030986392 100000
0.034742991 -0.05 -0.030327512 100000
0.033050705 -0.05 -0.029659803 100000
0.031390305 -0.05 -0.02898295 100000
0.029761786 -0.05 -0.028296598 100000
0.028165206 -0.05 -0.027600317 100000
0.026600638 -0.05 -0.026893726 100000
0.025068233 -0.05 -0.026176339 100000
0.023568205 -0.05 -0.025447642 100000
0.022100817 -0.05 -0.024707126 100000
0.020666455 -0.05 -0.023954166 100000
0.01926553 -0.05 -0.023188193 100000
0.017898622 -0.05 -0.022408484 100000
0.016566393 -0.05 -0.021614285 100000
0.015269602 -0.05 -0.020804856 100000
0.014009196 -0.05 -0.019979354 100000
0.012786304 -0.05 -0.019136925 100000
0.011602251 -0.05 -0.018276681 100000
0.010458592 -0.05 -0.017397631 100000
0.0093570772 -0.05 -0.016498728 100000
0.0082997731 -0.05 -0.015579119 100000
0.007289171 -0.05 -0.014637973 100000
0.006328005 -0.05 -0.013674206 100000
0.0054193338 -0.05 -0.012687094 100000
0.0045668904 -0.05 -0.011676479 100000
0.0037745453 -0.05 -0.010641987 100000
0.003046386 -0.05 -0.0095837975 100000
0.0023871502 -0.05 -0.0085032344 100000
0.0018014113 -0.05 -0.0074017733 100000
0.0012935088 -0.05 -0.006281915 100000
0.00086736679 -0.05 -0.0051476981 100000
0.00052606352 -0.05 -0.0040035244 100000
0.00027134922 -0.05 -0.0028546998 100000
0.0001033047 -0.05 -0.0017072821 100000
2.043076e-05 -0.05 -0.0005673362 100000
0.99689368 -0.05 -0.00044967621 100000
0.99068052 -0.05 -0.0013455353 100000
0.98446635 -0.05 -0.0022344071 100000
0.9782512 -0.05 -0.0031163183 100000
0.97203508 -0.05 -0.0039913751 100000
0.96581802 -0.05 -0.0048597361 100000
0.95960002 -0.05 -0.0057213841 100000
0.95338112 -0.05 -0.0065763825 100000
0.94716132 -0.05 -0.0074248863 100000
0.94094064 -0.05 -0.0082669799 100000
0.9347191 -0.05 -0.0091026682 100000
0.92849672 -0.05 -0.0099320114 100000
0.9222735 -0.05 -0.010755086 100000
0.91604946 -0.05 -0.011571927 100000
0.90982463 -0.05 -0.012382685 100000
0.903599 -0.05 -0.013187359 100000
0.8973726 -0.05 -0.013985979 100000
0.89114545 -0.05 -0.014778682 100000
0.88491754 -0.05 -0.01556548 100000
0.87868888 -0.05 -0.016346318 100000
0.87245949 -0.05 -0.017121333 100000
0.86622939 -0.05 -0.017890593 100000
0.85999858 -0.05 -0.018654069 100000
0.85376707 -0.05 -0.019411849 100000
0.84753488 -0.05 -0.020163994 100000
0.84130202 -0.05 -0.020910491 100000
0.83506847 -0.05 -0.021651303 100000
0.82883427 -0.05 -0.022386607 100000
0.82259942 -0.05 -0.023116362 100000
0.81636392 -0.05 -0.02384052 100000
0.81012778 -0.05 -0.024559163 100000
0.80389101 -0.05 -0.0252723 100000
0.79765362 -0.05 -0.025979962 100000
0.79141559 -0.05 -0.026682104 100000
0.78517697 -0.05 -0.027378813 100000
0.77893774 -0.05 -0.028070053 100000
0.77269789 -0.05 -0.028755794 100000
0.76645745 -0.05 -0.029436095 100000
0.76021642 -0.05 -0.030110944 100000
0.75397479 -0.05 -0.030780329 100000
0.74773259 -0.05 -0.031444223 100000
0.7414898 -0.05 -0.03210261 100000
0.73524643 -0.05 -0.032755476 100000
0.72900249 -0.05 -0.033402785 100000
0.72275797 -0.05 -0.034044571 100000
0.71651289 -0.05 -0.034680863 100000
0.71026723 -0.05 -0.035311486 100000
0.70402101 -0.05 -0.035936492 100000
0.69777423 -0.05 -0.036555847 100000
0.69152688 -0.05 -0.037169456 100000
0.68527898 -0.05 -0.037777377 100000
0.67903051 -0.05 -0.038379511 100000
0.67278149 -0.05 -0.038975868 100000
0.66653191 -0.05 -0.039566333 100000
0.66028177 -0.05 -0.040150805 100000
0.65403108 -0.05 -0.040729368 100000
0.64777983 -0.05 -0.041301937 100000
0.64152802 -0.05 -0.041868344 100000
0.63527566 -0.05 -0.042428558 100000
0.62902274 -0.05 -0.042982581 100000
0.62276928 -0.05 -0.043530275 100000
0.61651524 -0.05 -0.044071554 100000
0.61026066 -0.05 -0.044606417 100000
0.60400552 -0.05 -0.04513472 100000
0.59774982 -0.05 -0.045656388 100000
0.59149357 -0.05 -0.046171339 100000
0.58523676 -0.05 -0.046679483 100000
0.57897939 -0.05 -0.047180702 100000
0.57272146 -0.05 -0.047674853 100000
0.56646297 -0.05 -0.048161902 100000
0.56020393 -0.05 -0.048641729 100000
0.55394431 -0.05 -0.049114169 100000
0.54768415 -0.05 -0.049579154 100000
0.54142342 -0.05 -0.050036519 100000
0.53516213 -0.05 -0.050486126 100000
0.52890029 -0.05 -0.050927903 100000
0.52263788 -0.05 -0.051361679 100000
0.51637492 -0.05 -0.051787313 100000
0.5101114 -0.05 -0.052204634 100000
0.50384732 -0.05 -0.052613507 100000
0.49758268 -0.05 -0.053013807 100000
0.49131749 -0.05 -0.053405337 100000
0.48505175 -0.05 -0.053787894 100000
0.47878546 -0.05 -0.054161352 100000
0.47251862 -0.05 -0.054525574 100000
0.46625124 -0.05 -0.05488031 100000
0.45998333 -0.05 -0.055225345 100000
0.45371487 -0.05 -0.055560516 100000
0.44744588 -0.05 -0.05588564 100000
0.44117637 -0.05 -0.056200491 100000
0.43490635 -0.05 -0.056504829 100000
0.42863581 -0.05 -0.056798443 100000
0.42236477 -0.05 -0.057081135 100000
0.41609323 -0.05 -0.057352654 100000
0.40982121 -0.05 -0.057612725 100000
0.40354872 -0.05 -0.05786112 100000
0.39727577 -0.05 -0.058097557 100000
0.39100236 -0.05 -0.058321724 100000
0.38472852 -0.05 -0.058533407 100000
0.37845427 -0.05 -0.058732365 100000
0.37217961 -0.05 -0.0589182 100000
0.36590457 -0.05 -0.059090591 100000
0.35962917 -0.05 -0.059249298 100000
0.35335343 -0.05 -0.059393982 100000
0.34707738 -0.05 -0.059524288 100000
0.34080103 -0.05 -0.059639828 100000
0.33452442 -0.05 -0.059740272 100000
0.3282476 -0.05 -0.059825231 100000
0.32197057 -0.05 -0.059894279 100000
0.31569338 -0.05 -0.059947026 100000
0.30941608 -0.05 -0.059983058 100000
0.3031387 -0.05 -0.060001942 100000
0.29716094 -0.05 0.060003951 100000
0.29152372 -0.05 0.059990521 100000
0.28596771 -0.05 0.059962714 100000
0.28049176 -0.05 0.059920744 100000
0.27509477 -0.05 0.059864875 100000
0.26977563 -0.05 0.059795406 100000
0.26453326 -0.05 0.059712612 100000
0.25936661 -0.05 0.059616738 100000
0.25427461 -0.05 0.059508073 100000
0.24925624 -0.05 0.059386864 100000
0.24431046 -0.05 0.059253294 100000
0.23943627 -0.05 0.059107644 100000
0.23463269 -0.05 0.058950155 100000
0.22989872 -0.05 0.058781092 100000
0.22523341 -0.05 0.058600699 100000
0.22063581 -0.05 0.058409148 100000
0.21610498 -0.05 0.058206703 100000
0.21164 -0.05 0.057993589 100000
0.20723996 -0.05 0.057769938 100000
0.20290397 -0.05 0.057536016 100000
0.19863113 -0.05 0.057292039 100000
0.1944206 -0.05 0.057038235 100000
0.19027149 -0.05 0.056774813 100000
0.18618296 -0.05 0.056501854 100000
0.18215421 -0.05 0.056219613 100000
0.17818439 -0.05 0.055928282 100000
0.1742727 -0.05 0.055628021 100000
0.17041834 -0.05 0.05531904 100000
0.16662052 -0.05 0.055001501 100000
0.16287849 -0.05 0.054675541 100000
0.15919147 -0.05 0.054341291 100000
0.15555871 -0.05 0.053998978 100000
0.15197949 -0.05 0.053648715 100000
0.14845308 -0.05 0.053290645 100000
0.14497875 -0.05 0.052924917 100000
0.14155581 -0.05 0.052551626 100000
0.13818355 -0.05 0.052170931 100000
0.13486131 -0.05 0.051782947 100000
0.1315884 -0.05 0.051387844 100000
0.12836416 -0.05 0.050985731 100000
0.12518796 -0.05 0.050576637 100000
0.12205913 -0.05 0.050160743 100000
0.11897705 -0.05 0.04973817 100000
0.11594111 -0.05 0.049308935 100000
0.11295071 -0.05 0.04887311 100000
0.11000524 -0.05 0.048430828 100000
0.10710412 -0.05 0.04798212 100000
0.10424677 -0.05 0.047527078 100000
0.10143261 -0.05 0.047065858 100000
0.09866109 -0.05 0.046598401 100000
0.09593168 -0.05 0.04612476 100000
0.093243824 -0.05 0.045645077 100000
0.090597019 -0.05 0.045159266 100000
0.087990745 -0.05 0.044667393 100000
0.08542449 -0.05 0.04416952 100000
0.082897762 -0.05 0.043665674 100000
0.080410071 -0.05 0.043155893 100000
0.077960971 -0.05 0.042640072 100000
0.075550003 -0.05 0.042118202 100000
0.073176702 -0.05 0.041590352 100000
0.070840621 -0.05 0.04105654 100000
0.068541357 -0.05 0.04051665 100000
0.066278498 -0.05 0.03997064 100000
0.064051633 -0.05 0.039418504 100000
0.061860386 -0.05 0.038860149 100000
0.059704388 -0.05 0.038295487 100000
0.057583276 -0.05 0.037724455 100000
0.055496709 -0.05 0.037146948 100000
0.053444339 -0.05 0.03656293 100000
0.051425875 -0.05 0.03597221 100000
0.049441026 -0.05 0.035374635 100000
0.047489491 -0.05 0.034770137 100000
0.045571017 -0.05 0.034158533 100000
0.043685369 -0.05 0.033539632 100000
0.041832355 -0.05 0.032913159 100000
0.040011777 -0.05 0.032278918 100000
0.03822344 -0.05 0.031636758 100000
0.036467211 -0.05 0.030986392 100000
0.034742991 -0.05 0.030327512 100000
0.033050705 -0.05 0.029659803 100000
0.031390305 -0.05 0.02898295 100000
0.029761786 -0.05 0.028296598 100000
0.028165206 -0.05 0.027600317 100000
0.026600638 -0.05 0.026893726 100000
0.025068233 -0.05 0.026176339 100000
0.023568205 -0.05 0.025447642 100000
0.022100817 -0.05 0.024707127 100000
0.020666455 -0.05 0.023954166 100000
0.01926553 -0.05 0.023188193 100000
0.017898621 -0.05 0.022408484 100000
0.016566393 -0.05 0.021614285 100000
0.015269602 -0.05 0.020804856 100000
0.014009196 -0.05 0.019979354 100000
0.012786304 -0.05 0.019136925 100000
0.011602252 -0.05 0.018276682 100000
0.010458592 -0.05 0.017397631 100000
0.0093570772 -0.05 0.016498728 100000
0.0082997731 -0.05 0.015579119 100000
0.007289171 -0.05 0.014637973 100000
0.006328005 -0.05 0.013674206 100000
0.0054193338 -0.05 0.012687095 100000
0.0045668904 -0.05 0.011676479 100000
0.0037745453 -0.05 0.010641987 100000
0.003046386 -0.05 0.0095837975 100000
0.0023871502 -0.05 0.0085032344 100000
0.0018014114 -0.05 0.0074017733 100000
0.0012935088 -0.05 0.006281915 100000
0.00086736679 -0.05 0.0051476981 100000
0.00052606352 -0.05 0.0040035244 100000
0.00027134922 -0.05 0.0028546998 100000
0.00010330469 -0.05 0.0017072821 100000
2.043076e-05 -0.05 0.0005673362 100000
0.99689368 -0.05 0.0004496762 100000
0.99068052 -0.05 0.0013455353 100000
0.98446635 -0.05 0.002234407 100000
0.9782512 -0.05 0.0031163182 100000
0.97203508 -0.05 0.0039913751 100000
0.96581802 -0.05 0.0048597361 100000
0.95960003 -0.05 0.0057213841 100000
0.95338112 -0.05 0.0065763825 100000
0.94716132 -0.05 0.0074248863 100000
0.94094064 -0.05 0.0082669799 100000
0.9347191 -0.05 0.0091026682 100000
0.92849672 -0.05 0.0099320114 100000
0.9222735 -0.05 0.010755086 100000
0.91604946 -0.05 0.011571927 100000
0.90982463 -0.05 0.012382686 100000
0.903599 -0.05 0.013187359 100000
0.8973726 -0.05 0.013985979 100000
0.89114545 -0.05 0.014778682 100000
0.88491753 -0.05 0.01556548 100000
0.87868888 -0.05 0.016346318 100000
0.87245949 -0.05 0.017121333 100000
0.86622939 -0.05 0.017890593 100000
0.85999858 -0.05 0.018654069 100000
0.85376708 -0.05 0.019411849 100000
0.84753488 -0.05 0.020163994 100000
0.84130202 -0.05 0.020910491 100000
0.83506847 -0.05 0.021651303 100000
0.82883428 -0.05 0.022386607 100000
0.82259942 -0.05 0.023116362 100000
0.81636392 -0.05 0.023840521 100000
0.81012778 -0.05 0.024559163 100000
0.80389101 -0.05 0.0252723 100000
0.79765362 -0.05 0.025979962 100000
0.79141559 -0.05 0.026682104 100000
0.78517697 -0.05 0.027378813 100000
0.77893773 -0.05 0.028070053 100000
0.77269789 -0.05 0.028755794 100000
0.76645745 -0.05 0.029436096 100000
0.76021642 -0.05 0.030110944 100000
0.7539748 -0.05 0.030780329 100000
0.74773259 -0.05 0.031444223 100000
0.7414898 -0.05 0.03210261 100000
0.73524643 -0.05 0.032755476 100000
0.72900249 -0.05 0.033402785 100000
0.72275797 -0.05 0.034044571 100000
0.71651289 -0.05 0.034680863 100000
0.71026723 -0.05 0.035311486 100000
0.70402101 -0.05 0.035936492 100000
0.69777423 -0.05 0.036555847 100000
0.69152688 -0.05 0.037169456 100000
0.68527898 -0.05 0.037777377 100000
0.67903051 -0.05 0.038379511 100000
0.67278149 -0.05 0.038975868 100000
0.66653191 -0.05 0.039566333 100000
0.66028177 -0.05 0.040150805 100000
0.65403108 -0.05 0.040729368 100000
0.64777983 -0.05 0.041301936 100000
0.64152802 -0.05 0.041868344 100000
0.63527566 -0.05 0.042428558 100000
0.62902275 -0.05 0.042982581 100000
0.62276928 -0.05 0.043530275 100000
0.61651524 -0.05 0.044071554 100000
0.61026066 -0.05 0.044606418 100000
0.60400552 -0.05 0.045134719 100000
0.59774983 -0.05 0.045656388 100000
0.59149357 -0.05 0.04617134 100000
0.58523675 -0.05 0.046679483 100000
0.57897939 -0.05 0.047180702 100000
0.57272146 -0.05 0.047674853 100000
0.56646297 -0.05 0.048161902 100000
0.56020393 -0.05 0.048641729 100000
0.55394431 -0.05 0.04911417 100000
0.54768415 -0.05 0.049579154 100000
0.54142342 -0.05 0.050036519 100000
0.53516213 -0.05 0.050486126 100000
0.52890029 -0.05 0.050927904 100000
0.52263788 -0.05 0.05136168 100000
0.51637492 -0.05 0.051787313 100000
0.5101114 -0.05 0.052204634 100000
0.50384732 -0.05 0.052613507 100000
0.49758268 -0.05 0.053013807 100000
0.49131749 -0.05 0.053405337 100000
0.48505175 -0.05 0.053787894 100000
0.47878546 -0.05 0.054161352 100000
0.47251862 -0.05 0.054525575 100000
0.46625124 -0.05 0.05488031 100000
0.45998332 -0.05 0.055225345 100000
0.45371487 -0.05 0.055560515 100000
0.44744589 -0.05 0.05588564 100000
0.44117637 -0.05 0.056200491 100000
0.43490635 -0.05 0.056504829 100000
0.42863581 -0.05 0.056798443 100000
0.42236477 -0.05 0.057081135 100000
0.41609323 -0.05 0.057352655 100000
0.40982121 -0.05 0.057612725 100000
0.40354872 -0.05 0.057861121 100000
0.39727577 -0.05 0.058097556 100000
0.39100236 -0.05 0.058321723 100000
0.38472853 -0.05 0.058533406 100000
0.37845427 -0.05 0.058732365 100000
0.37217961 -0.05 0.0589182 100000
0.36590457 -0.05 0.059090591 100000
0.35962917 -0.05 0.059249298 100000
0.35335343 -0.05 0.059393982 100000
0.34707738 -0.05 0.059524288 100000
0.34080103 -0.05 0.059639828 100000
0.33452442 -0.05 0.059740272 100000
0.3282476 -0.05 0.059825231 100000
0.32197057 -0.05 0.059894279 100000
0.31569338 -0.05 0.059947026 100000
0.30941608 -0.05 0.059983058 100000
0.3031387 -0.05 0.060001942 100000
