# wallShearStress  FACE_DATA 448
# x y z  wallShearStress_x wallShearStress_y wallShearStress_z
0.29716095 -0.05 -0.060003952 -6.4982206 6.7404701e-24 -0.0023525706
0.29152372 -0.05 -0.059990521 -6.5291046 -9.6054015e-24 -0.0080475852
0.2859677 -0.05 -0.059962714 -6.5595427 -1.3539152e-22 -0.013841701
0.28049175 -0.05 -0.059920743 -6.5895226 4.3320174e-22 -0.01980573
0.27509477 -0.05 -0.059864875 -6.6190512 5.711241e-23 -0.025821054
0.26977563 -0.05 -0.059795406 -6.6481217 1.283035e-22 -0.031979775
0.26453326 -0.05 -0.059712612 -6.6767389 4.6424645e-22 -0.038201189
0.25936661 -0.05 -0.059616738 -6.704888 1.1578695e-21 -0.044589634
0.25427461 -0.05 -0.059508073 -6.732585 1.0154865e-21 -0.050996456
0.24925623 -0.05 -0.059386864 -6.7598023 -1.4988271e-21 -0.057605385
0.24431045 -0.05 -0.059253294 -6.7865566 -1.1202746e-21 -0.064282531
0.23943627 -0.05 -0.059107644 -6.8128682 -2.8672379e-21 -0.071074949
0.23463269 -0.05 -0.058950155 -6.8387147 -3.8282158e-21 -0.077962844
0.22989872 -0.05 -0.058781092 -6.8640948 2.0533875e-22 -0.08494171
0.22523341 -0.05 -0.058600699 -6.8890271 -7.2981913e-23 -0.092029232
0.22063581 -0.05 -0.058409148 -6.9134851 3.8432839e-21 -0.099275535
0.21610498 -0.05 -0.058206703 -6.9375235 -4.6640415e-21 -0.10653222
0.21164 -0.05 -0.057993589 -6.9610997 2.9428261e-21 -0.11398754
0.20723996 -0.05 -0.057769938 -6.9842398 6.2373532e-21 -0.12154075
0.20290396 -0.05 -0.057536016 -7.0069594 -3.1807249e-21 -0.12915131
0.19863113 -0.05 -0.057292038 -7.0292549 -1.117995e-20 -0.13691048
0.1944206 -0.05 -0.057038235 -7.0511385 3.0687001e-21 -0.14470089
0.19027149 -0.05 -0.056774812 -7.0725986 -1.615169e-20 -0.15266564
0.18618297 -0.05 -0.056501854 -7.0936435 -2.5047564e-22 -0.16079267
0.18215421 -0.05 -0.056219613 -7.1143249 -1.5592833e-20 -0.1689011
0.17818439 -0.05 -0.055928282 -7.1345818 -6.7900367e-21 -0.17723784
0.1742727 -0.05 -0.055628021 -7.1545139 8.9305773e-21 -0.18558636
0.17041834 -0.05 -0.05531904 -7.1740492 2.4927547e-20 -0.19410489
0.16662052 -0.05 -0.055001501 -7.193289 -2.6263774e-20 -0.20268584
0.16287849 -0.05 -0.054675541 -7.2121298 -8.0475283e-21 -0.21146579
0.15919147 -0.05 -0.054341291 -7.2306786 -5.6958725e-21 -0.22031199
0.15555872 -0.05 -0.053998978 -7.2489625 -1.0610626e-20 -0.2292377
0.15197949 -0.05 -0.053648715 -7.266856 4.259319e-21 -0.23836709
0.14845308 -0.05 -0.053290644 -7.2845253 4.5225435e-21 -0.24753536
0.14497875 -0.05 -0.052924917 -7.3019017 -1.4981601e-20 -0.2568981
0.1415558 -0.05 -0.052551626 -7.3190589 6.7145736e-21 -0.2663731
0.13818355 -0.05 -0.05217093 -7.3360094 4.4608115e-21 -0.27595469
0.13486131 -0.05 -0.051782947 -7.3526664 2.323515e-21 -0.28570326
0.1315884 -0.05 -0.051387844 -7.3692311 -1.7843275e-20 -0.29548024
0.12836416 -0.05 -0.050985731 -7.3855569 -1.8844734e-20 -0.30551127
0.12518796 -0.05 -0.050576637 -7.4016874 3.0767693e-20 -0.31568622
0.12205913 -0.05 -0.050160743 -7.4177681 2.0951328e-21 -0.32588992
0.11897705 -0.05 -0.04973817 -7.4336913 -2.4791429e-20 -0.33632918
0.11594111 -0.05 -0.049308935 -7.4495019 -2.0346485e-20 -0.34695325
0.11295071 -0.05 -0.04887311 -7.4652231 -1.507669e-20 -0.35772884
0.11000524 -0.05 -0.048430828 -7.4809481 2.2309551e-20 -0.36860172
0.10710412 -0.05 -0.04798212 -7.4964743 1.858532e-20 -0.37977745
0.10424677 -0.05 -0.047527078 -7.5121953 -6.7923616e-20 -0.39096294
0.1014326 -0.05 -0.047065858 -7.5279015 5.4890008e-21 -0.40235523
0.09866109 -0.05 -0.046598401 -7.543456 4.1168743e-21 -0.41409219
0.09593168 -0.05 -0.04612476 -7.5592599 2.348549e-20 -0.4258655
0.093243824 -0.05 -0.045645077 -7.5751292 4.8700907e-20 -0.43784771
0.090597019 -0.05 -0.045159266 -7.5908689 5.0890315e-20 -0.45022846
0.087990745 -0.05 -0.044667393 -7.6070138 -6.4830386e-20 -0.46258538
0.08542449 -0.05 -0.04416952 -7.6230942 6.2134875e-20 -0.4753468
0.082897762 -0.05 -0.043665674 -7.6395816 -8.5376187e-20 -0.48814761
0.080410071 -0.05 -0.043155893 -7.6560616 -2.0785792e-20 -0.50133607
0.077960971 -0.05 -0.042640073 -7.6726942 -9.1604053e-20 -0.51481093
0.075550003 -0.05 -0.042118202 -7.6896122 -5.4268509e-20 -0.52852223
0.073176701 -0.05 -0.041590352 -7.7069507 2.0057416e-20 -0.54238933
0.070840621 -0.05 -0.041056539 -7.724481 -3.8588027e-20 -0.55658638
0.068541357 -0.05 -0.04051665 -7.7421779 -2.1202616e-20 -0.57117022
0.066278498 -0.05 -0.03997064 -7.7603366 1.7984065e-20 -0.58596698
0.064051633 -0.05 -0.039418504 -7.7787994 -5.7685123e-20 -0.60109407
0.061860386 -0.05 -0.038860149 -7.7975189 -2.1569347e-20 -0.61658695
0.059704388 -0.05 -0.038295488 -7.8166022 1.0973781e-20 -0.63239889
0.057583276 -0.05 -0.037724455 -7.8361 -3.8829703e-21 -0.64854628
0.055496709 -0.05 -0.037146948 -7.8559327 1.0369878e-19 -0.665084
0.05344434 -0.05 -0.03656293 -7.8764236 1.0449021e-20 -0.68183844
0.051425875 -0.05 -0.03597221 -7.8967773 -1.4001895e-19 -0.69924766
0.049441026 -0.05 -0.035374635 -7.9179852 -1.3348584e-19 -0.7168055
0.047489491 -0.05 -0.034770137 -7.9393972 1.3504876e-19 -0.73486354
0.045571017 -0.05 -0.034158533 -7.9613368 -8.5633451e-20 -0.75326539
0.043685369 -0.05 -0.033539632 -7.9834627 -9.8305636e-21 -0.77215421
0.041832355 -0.05 -0.032913159 -8.0057883 -1.6158679e-19 -0.79151222
0.040011778 -0.05 -0.032278918 -8.0286709 1.5810059e-19 -0.8111977
0.03822344 -0.05 -0.031636758 -8.0520111 8.8217637e-21 -0.83125232
0.036467211 -0.05 -0.030986392 -8.0753532 -8.8803081e-20 -0.85181003
0.034742991 -0.05 -0.030327512 -8.099043 2.6756591e-19 -0.87271545
0.033050705 -0.05 -0.029659803 -8.1227362 -8.7542939e-20 -0.8940678
0.031390305 -0.05 -0.02898295 -8.1467916 8.4722157e-20 -0.91569126
0.029761786 -0.05 -0.028296598 -8.1706758 -4.5391405e-20 -0.93771821
0.028165206 -0.05 -0.027600317 -8.1945641 -4.0154401e-20 -0.96001198
0.026600638 -0.05 -0.026893726 -8.2184727 -2.2526764e-19 -0.98248896
0.025068233 -0.05 -0.026176339 -8.2418682 2.5855542e-19 -1.0051922
0.023568205 -0.05 -0.025447642 -8.2650973 9.133496e-20 -1.0279101
0.022100817 -0.05 -0.024707126 -8.2878084 -6.1354738e-20 -1.0505896
0.020666455 -0.05 -0.023954166 -8.3097248 1.0583154e-19 -1.0731168
0.01926553 -0.05 -0.023188193 -8.331382 4.8680408e-20 -1.0951851
0.017898622 -0.05 -0.022408484 -8.3513748 2.0668315e-19 -1.1167929
0.016566393 -0.05 -0.021614285 -8.3709658 -9.8044423e-20 -1.1374614
0.015269602 -0.05 -0.020804856 -8.3889343 -8.0738244e-20 -1.1570069
0.014009196 -0.05 -0.019979354 -8.4059188 -7.3832359e-21 -1.1749648
0.012786304 -0.05 -0.019136925 -8.4211665 5.3373413e-21 -1.1909105
0.011602251 -0.05 -0.018276681 -8.4352524 2.5537973e-19 -1.2042588
0.010458592 -0.05 -0.017397631 -8.447235 4.753495e-19 -1.2143192
0.0093570772 -0.05 -0.016498728 -8.4580706 -1.5270215e-19 -1.2203225
0.0082997731 -0.05 -0.015579119 -8.4675193 -3.9541031e-19 -1.2213255
0.007289171 -0.05 -0.014637973 -8.4757865 1.2075218e-19 -1.2162384
0.006328005 -0.05 -0.013674206 -8.4826468 -1.9477559e-19 -1.2036261
0.0054193338 -0.05 -0.012687094 -8.48982 -2.8885372e-19 -1.1824691
0.0045668904 -0.05 -0.011676479 -8.4967947 -1.6767032e-19 -1.1508227
0.0037745453 -0.05 -0.010641987 -8.504916 -3.8437417e-20 -1.1073222
0.003046386 -0.05 -0.0095837975 -8.5149088 -2.2663792e-19 -1.0503518
0.0023871502 -0.05 -0.0085032344 -8.5276817 -3.1481166e-19 -0.97854979
0.0018014113 -0.05 -0.0074017733 -8.5438488 -3.2119658e-19 -0.8905419
0.0012935088 -0.05 -0.006281915 -8.5645079 -1.8344534e-19 -0.78657659
0.00086736679 -0.05 -0.0051476981 -8.5898848 -3.4652837e-20 -0.66703262
0.00052606352 -0.05 -0.0040035244 -8.6198267 -3.3014609e-20 -0.53282864
0.00027134922 -0.05 -0.0028546998 -8.6542358 6.219647e-20 -0.38766689
0.0001033047 -0.05 -0.0017072821 -8.6922422 3.7313755e-20 -0.2348777
2.043076e-05 -0.05 -0.0005673362 -8.7328101 3.0280827e-20 -0.078544513
0.99689368 -0.05 -0.00044967621 -6.5737935 1.9401063e-20 0.30858837
0.99068052 -0.05 -0.0013455353 -6.5723774 -2.0076131e-20 0.30620686
0.98446635 -0.05 -0.0022344071 -6.5709613 -2.0881077e-20 0.3038236
0.9782512 -0.05 -0.0031163183 -6.5695516 3.8432759e-21 0.30145914
0.97203508 -0.05 -0.0039913751 -6.5682082 -7.3575263e-21 0.29914815
0.96581802 -0.05 -0.0048597361 -6.5669139 -3.8784347e-20 0.29689208
0.95960002 -0.05 -0.0057213841 -6.5655842 3.5280195e-20 0.29456864
0.95338112 -0.05 -0.0065763825 -6.5643578 -6.4218297e-20 0.29235667
0.94716132 -0.05 -0.0074248863 -6.5631252 -8.920378e-20 0.29013861
0.94094064 -0.05 -0.0082669799 -6.5619251 2.9619102e-20 0.28798223
0.9347191 -0.05 -0.0091026682 -6.560725 -8.3715248e-20 0.28576815
0.92849672 -0.05 -0.0099320114 -6.5596086 4.4112112e-20 0.28365356
0.9222735 -0.05 -0.010755086 -6.5584384 -3.2161835e-20 0.28149027
0.91604946 -0.05 -0.011571927 -6.5573159 -1.8402607e-20 0.27939774
0.90982463 -0.05 -0.012382685 -6.5562422 -3.3611982e-20 0.27733798
0.903599 -0.05 -0.013187359 -6.5551569 2.6098336e-20 0.27524401
0.8973726 -0.05 -0.013985979 -6.5541314 -3.7838056e-20 0.27320647
0.89114545 -0.05 -0.014778682 -6.5531432 -2.8840916e-20 0.27120589
0.88491754 -0.05 -0.01556548 -6.5521194 9.144061e-21 0.26917561
0.87868888 -0.05 -0.016346318 -6.5510882 -6.2900561e-20 0.26713482
0.87245949 -0.05 -0.017121333 -6.5501441 5.2437216e-20 0.26519883
0.86622939 -0.05 -0.017890593 -6.5491845 3.6493905e-20 0.26320498
0.85999858 -0.05 -0.018654069 -6.5482473 -5.8825872e-20 0.26124933
0.85376707 -0.05 -0.019411849 -6.5473094 3.8743089e-20 0.25931313
0.84753488 -0.05 -0.020163994 -6.5464056 -5.4213822e-21 0.25739942
0.84130202 -0.05 -0.020910491 -6.5455035 -8.4462527e-20 0.25545503
0.83506847 -0.05 -0.021651303 -6.5446025 -5.0132115e-21 0.25351545
0.82883427 -0.05 -0.022386607 -6.5437679 5.6043915e-20 0.25169037
0.82259942 -0.05 -0.023116362 -6.5428576 1.6882028e-20 0.24972293
0.81636392 -0.05 -0.02384052 -6.5420326 -5.9218638e-20 0.24786607
0.81012778 -0.05 -0.024559163 -6.5411835 -9.8412075e-21 0.24595304
0.80389101 -0.05 -0.0252723 -6.540368 4.4966312e-20 0.24410189
0.79765362 -0.05 -0.025979962 -6.5395268 -5.9722968e-20 0.24221021
0.79141559 -0.05 -0.026682104 -6.5387103 -7.3371071e-21 0.24032713
0.78517697 -0.05 -0.027378813 -6.5379311 -5.8418306e-20 0.23849575
0.77893774 -0.05 -0.028070053 -6.53711 4.9755779e-20 0.23658725
0.77269789 -0.05 -0.028755794 -6.5363324 -1.6554805e-20 0.23473372
0.76645745 -0.05 -0.029436095 -6.5355405 5.2043665e-20 0.2328667
0.76021642 -0.05 -0.030110944 -6.5347526 -4.4089164e-20 0.23100225
0.75397479 -0.05 -0.030780329 -6.533982 5.5560961e-20 0.22912849
0.74773259 -0.05 -0.031444223 -6.5331922 -1.3315653e-20 0.22724442
0.7414898 -0.05 -0.03210261 -6.5324214 -5.1018782e-20 0.22535876
0.73524643 -0.05 -0.032755476 -6.5316665 -4.5645465e-20 0.22346569
0.72900249 -0.05 -0.033402785 -6.5309101 -5.6086629e-21 0.2215556
0.72275797 -0.05 -0.034044571 -6.5301863 7.0045009e-20 0.2196851
0.71651289 -0.05 -0.034680863 -6.5294477 -9.8324364e-21 0.2177948
0.71026723 -0.05 -0.035311486 -6.5286553 -7.241258e-20 0.21580306
0.70402101 -0.05 -0.035936492 -6.5279408 -4.7303377e-20 0.21394718
0.69777423 -0.05 -0.036555847 -6.5271459 8.5280727e-21 0.21193136
0.69152688 -0.05 -0.037169456 -6.5264136 1.7435057e-20 0.21001075
0.68527898 -0.05 -0.037777377 -6.5256587 4.5000069e-21 0.2080342
0.67903051 -0.05 -0.038379511 -6.5249002 2.6374893e-20 0.20604483
0.67278149 -0.05 -0.038975868 -6.5241676 5.2632682e-21 0.20407516
0.66653191 -0.05 -0.039566333 -6.5233903 -1.332689e-20 0.20200579
0.66028177 -0.05 -0.040150805 -6.5226531 -3.7336734e-22 0.19996691
0.65403108 -0.05 -0.040729368 -6.5219179 2.1365572e-21 0.19795535
0.64777983 -0.05 -0.041301937 -6.5211576 1.8336624e-20 0.19585635
0.64152802 -0.05 -0.041868344 -6.5203913 1.1243069e-23 0.19373034
0.63527566 -0.05 -0.042428558 -6.5196226 2.0579774e-20 0.19160793
0.62902274 -0.05 -0.042982581 -6.5188753 2.6803549e-20 0.18948317
0.62276928 -0.05 -0.043530275 -6.5181067 1.3237012e-20 0.18726688
0.61651524 -0.05 -0.044071554 -6.517348 -1.6204571e-20 0.18508257
0.61026066 -0.05 -0.044606417 -6.5165711 5.7327992e-21 0.18286298
0.60400552 -0.05 -0.04513472 -6.515798 -2.3753254e-20 0.1805798
0.59774982 -0.05 -0.045656388 -6.5150464 -1.5717603e-20 0.17831064
0.59149357 -0.05 -0.046171339 -6.5142589 -1.4067545e-20 0.17596901
0.58523676 -0.05 -0.046679483 -6.5134737 2.7964751e-21 0.1736361
0.57897939 -0.05 -0.047180702 -6.5126768 -5.4772175e-22 0.17121434
0.57272146 -0.05 -0.047674853 -6.5118899 2.3209469e-20 0.16878266
0.56646297 -0.05 -0.048161902 -6.5111076 1.5215882e-22 0.16633744
0.56020393 -0.05 -0.048641729 -6.51032 2.589204e-21 0.16382143
0.55394431 -0.05 -0.049114169 -6.5095187 6.2635705e-21 0.16126461
0.54768415 -0.05 -0.049579154 -6.5087287 1.0226319e-20 0.1586991
0.54142342 -0.05 -0.050036519 -6.5079165 -4.1720934e-21 0.15602971
0.53516213 -0.05 -0.050486126 -6.5071128 1.7329151e-20 0.15336814
0.52890029 -0.05 -0.050927903 -6.506312 4.2598234e-21 0.15064941
0.52263788 -0.05 -0.051361679 -6.5055046 -3.3665638e-22 0.14786916
0.51637492 -0.05 -0.051787313 -6.5046905 1.9253856e-20 0.14505239
0.5101114 -0.05 -0.052204634 -6.5038781 -9.9795675e-21 0.14215586
0.50384732 -0.05 -0.052613507 -6.5030696 6.6369093e-21 0.13924463
0.49758268 -0.05 -0.053013807 -6.5022526 -1.5070929e-20 0.13626184
0.49131749 -0.05 -0.053405337 -6.5014456 -4.4325423e-22 0.13321442
0.48505175 -0.05 -0.053787894 -6.5006257 5.6436399e-21 0.13009147
0.47878546 -0.05 -0.054161352 -6.499823 -4.9192001e-21 0.12695798
0.47251862 -0.05 -0.054525574 -6.499019 1.118413e-21 0.12373951
0.46625124 -0.05 -0.05488031 -6.4982034 -1.1442082e-20 0.1204328
0.45998333 -0.05 -0.055225345 -6.4973861 -1.3206088e-20 0.11706645
0.45371487 -0.05 -0.055560516 -6.4965814 -1.1078241e-21 0.11364739
0.44744588 -0.05 -0.05588564 -6.4957853 -1.6494681e-20 0.1101548
0.44117637 -0.05 -0.056200491 -6.4950084 -6.2054692e-21 0.10657943
0.43490635 -0.05 -0.056504829 -6.4942418 -1.9097913e-21 0.10292206
0.42863581 -0.05 -0.056798443 -6.4934805 5.9311927e-21 0.099200741
0.42236477 -0.05 -0.057081135 -6.492721 4.5294132e-22 0.095406434
0.41609323 -0.05 -0.057352654 -6.4919597 3.4095508e-21 0.091512222
0.40982121 -0.05 -0.057612725 -6.4912219 1.2647812e-21 0.087527131
0.40354872 -0.05 -0.05786112 -6.4905112 6.6851104e-21 0.083477328
0.39727577 -0.05 -0.058097557 -6.4898151 -5.0991211e-21 0.07929603
0.39100236 -0.05 -0.058321724 -6.4891386 -7.6187533e-22 0.075032917
0.38472852 -0.05 -0.058533407 -6.4884799 2.6021946e-22 0.070703227
0.37845427 -0.05 -0.058732365 -6.4878326 -4.697751e-21 0.066273486
0.37217961 -0.05 -0.0589182 -6.4872157 -1.4774336e-21 0.061669903
0.36590457 -0.05 -0.059090591 -6.4866399 -8.0838937e-22 0.057018849
0.35962917 -0.05 -0.059249298 -6.4861069 7.9692142e-22 0.052249149
0.35335343 -0.05 -0.059393982 -6.4855961 2.7499163e-22 0.047365406
0.34707738 -0.05 -0.059524288 -6.4851233 -4.2251093e-22 0.04235063
0.34080103 -0.05 -0.059639828 -6.48469 4.2431712e-22 0.037199503
0.33452442 -0.05 -0.059740272 -6.4843041 -3.3346422e-22 0.031957667
0.3282476 -0.05 -0.059825231 -6.4839706 -1.0776969e-22 0.026537541
0.32197057 -0.05 -0.059894279 -6.4836917 2.5393111e-22 0.02100293
0.31569338 -0.05 -0.059947026 -6.4834602 -2.9021667e-23 0.015314769
0.30941608 -0.05 -0.059983058 -6.4833075 4.6247304e-23 0.0094943594
0.3031387 -0.05 -0.060001942 -6.4832264 -2.6605081e-24 0.0035069931
0.29716094 -0.05 0.060003951 -6.4982206 -6.7404701e-24 0.0023525706
0.29152372 -0.05 0.059990521 -6.5291046 9.6054015e-24 0.0080475852
0.28596771 -0.05 0.059962714 -6.5595427 1.3539152e-22 0.013841701
0.28049176 -0.05 0.059920744 -6.5895226 -4.3320174e-22 0.01980573
0.27509477 -0.05 0.059864875 -6.6190512 -5.711241e-23 0.025821054
0.26977563 -0.05 0.059795406 -6.6481217 -1.283035e-22 0.031979775
0.26453326 -0.05 0.059712612 -6.6767389 -4.6424645e-22 0.038201189
0.25936661 -0.05 0.059616738 -6.704888 -1.1578695e-21 0.044589634
0.25427461 -0.05 0.059508073 -6.732585 -1.0154865e-21 0.050996456
0.24925624 -0.05 0.059386864 -6.7598023 1.4988271e-21 0.057605385
0.24431046 -0.05 0.059253294 -6.7865566 1.1202746e-21 0.064282531
0.23943627 -0.05 0.059107644 -6.8128682 2.8672379e-21 0.071074949
0.23463269 -0.05 0.058950155 -6.8387147 3.8282158e-21 0.077962844
0.22989872 -0.05 0.058781092 -6.8640948 -2.0533875e-22 0.08494171
0.22523341 -0.05 0.058600699 -6.8890271 7.2981913e-23 0.092029232
0.22063581 -0.05 0.058409148 -6.9134851 -3.8432839e-21 0.099275535
0.21610498 -0.05 0.058206703 -6.9375235 4.6640415e-21 0.10653222
0.21164 -0.05 0.057993589 -6.9610997 -2.9428261e-21 0.11398754
0.20723996 -0.05 0.057769938 -6.9842398 -6.2373532e-21 0.12154075
0.20290397 -0.05 0.057536016 -7.0069594 3.1807249e-21 0.12915131
0.19863113 -0.05 0.057292039 -7.0292549 1.117995e-20 0.13691048
0.1944206 -0.05 0.057038235 -7.0511385 1.5259329e-20 0.14470089
0.19027149 -0.05 0.056774813 -7.0725986 1.615169e-20 0.15266564
0.18618296 -0.05 0.056501854 -7.0936435 2.5047564e-22 0.16079267
0.18215421 -0.05 0.056219613 -7.1143249 1.5592833e-20 0.1689011
0.17818439 -0.05 0.055928282 -7.1345818 6.7900367e-21 0.17723784
0.1742727 -0.05 0.055628021 -7.1545139 -8.9305773e-21 0.18558636
0.17041834 -0.05 0.05531904 -7.1740492 -2.4927547e-20 0.19410489
0.16662052 -0.05 0.055001501 -7.193289 2.6263774e-20 0.20268584
0.16287849 -0.05 0.054675541 -7.2121298 8.0475283e-21 0.21146579
0.15919147 -0.05 0.054341291 -7.2306786 5.6958725e-21 0.22031199
0.15555871 -0.05 0.053998978 -7.2489625 1.0610626e-20 0.2292377
0.15197949 -0.05 0.053648715 -7.266856 -4.259319e-21 0.23836709
0.14845308 -0.05 0.053290645 -7.2845253 -4.5225435e-21 0.24753536
0.14497875 -0.05 0.052924917 -7.3019017 1.4981601e-20 0.2568981
0.14155581 -0.05 0.052551626 -7.3190589 -6.7145736e-21 0.2663731
0.13818355 -0.05 0.052170931 -7.3360094 -4.4608115e-21 0.27595469
0.13486131 -0.05 0.051782947 -7.3526664 4.3545973e-20 0.28570326
0.1315884 -0.05 0.051387844 -7.3692311 1.7843275e-20 0.29548024
0.12836416 -0.05 0.050985731 -7.3855569 1.8844734e-20 0.30551127
0.12518796 -0.05 0.050576637 -7.4016874 -3.0767693e-20 0.31568622
0.12205913 -0.05 0.050160743 -7.4177681 -2.0951328e-21 0.32588992
0.11897705 -0.05 0.04973817 -7.4336913 2.4791429e-20 0.33632918
0.11594111 -0.05 0.049308935 -7.4495019 2.0346485e-20 0.34695325
0.11295071 -0.05 0.04887311 -7.4652231 1.507669e-20 0.35772884
0.11000524 -0.05 0.048430828 -7.4809481 -2.2309551e-20 0.36860172
0.10710412 -0.05 0.04798212 -7.4964743 -1.858532e-20 0.37977745
0.10424677 -0.05 0.047527078 -7.5121953 6.7923616e-20 0.39096294
0.10143261 -0.05 0.047065858 -7.5279015 -5.4890008e-21 0.40235523
0.09866109 -0.05 0.046598401 -7.543456 -4.1168743e-21 0.41409219
0.09593168 -0.05 0.04612476 -7.5592599 -2.348549e-20 0.4258655
0.093243824 -0.05 0.045645077 -7.5751292 -4.8700907e-20 0.43784771
0.090597019 -0.05 0.045159266 -7.5908689 -5.0890315e-20 0.45022846
0.087990745 -0.05 0.044667393 -7.6070138 6.4830386e-20 0.46258538
0.08542449 -0.05 0.04416952 -7.6230942 -6.2134875e-20 0.4753468
0.082897762 -0.05 0.043665674 -7.6395816 8.5376187e-20 0.48814761
0.080410071 -0.05 0.043155893 -7.6560616 2.0785792e-20 0.50133607
0.077960971 -0.05 0.042640072 -7.6726942 9.1604053e-20 0.51481093
0.075550003 -0.05 0.042118202 -7.6896122 5.4268509e-20 0.52852223
0.073176702 -0.05 0.041590352 -7.7069507 -2.0057416e-20 0.54238933
0.070840621 -0.05 0.04105654 -7.724481 3.8588027e-20 0.55658638
0.068541357 -0.05 0.04051665 -7.7421779 2.1202616e-20 0.57117022
0.066278498 -0.05 0.03997064 -7.7603366 -1.7984065e-20 0.58596698
0.064051633 -0.05 0.039418504 -7.7787994 5.7685123e-20 0.60109407
0.061860386 -0.05 0.038860149 -7.7975189 2.1569347e-20 0.61658695
0.059704388 -0.05 0.038295487 -7.8166022 -1.0973781e-20 0.63239889
0.057583276 -0.05 0.037724455 -7.8361 3.8829703e-21 0.64854628
0.055496709 -0.05 0.037146948 -7.8559327 -1.0369878e-19 0.665084
0.053444339 -0.05 0.03656293 -7.8764236 -1.0449021e-20 0.68183844
0.051425875 -0.05 0.03597221 -7.8967773 1.4001895e-19 0.69924766
0.049441026 -0.05 0.035374635 -7.9179852 1.3348584e-19 0.7168055
0.047489491 -0.05 0.034770137 -7.9393972 -1.3504876e-19 0.73486354
0.045571017 -0.05 0.034158533 -7.9613368 8.5633451e-20 0.75326539
0.043685369 -0.05 0.033539632 -7.9834627 9.8305636e-21 0.77215421
0.041832355 -0.05 0.032913159 -8.0057883 1.6158679e-19 0.79151222
0.040011777 -0.05 0.032278918 -8.0286709 -1.5810059e-19 0.8111977
0.03822344 -0.05 0.031636758 -8.0520111 -8.8217637e-21 0.83125232
0.036467211 -0.05 0.030986392 -8.0753532 8.8803081e-20 0.85181003
0.034742991 -0.05 0.030327512 -8.099043 -2.6756591e-19 0.87271545
0.033050705 -0.05 0.029659803 -8.1227362 8.7542939e-20 0.8940678
0.031390305 -0.05 0.02898295 -8.1467916 -8.4722157e-20 0.91569126
0.029761786 -0.05 0.028296598 -8.1706758 4.5391405e-20 0.93771821
0.028165206 -0.05 0.027600317 -8.1945641 4.0154401e-20 0.96001198
0.026600638 -0.05 0.026893726 -8.2184727 2.2526764e-19 0.98248896
0.025068233 -0.05 0.026176339 -8.2418682 -2.5855542e-19 1.0051922
0.023568205 -0.05 0.025447642 -8.2650973 -9.133496e-20 1.0279101
0.022100817 -0.05 0.024707127 -8.2878084 6.1354738e-20 1.0505896
0.020666455 -0.05 0.023954166 -8.3097248 -1.0583154e-19 1.0731168
0.01926553 -0.05 0.023188193 -8.331382 -4.8680408e-20 1.0951851
0.017898621 -0.05 0.022408484 -8.3513748 -2.0668315e-19 1.1167929
0.016566393 -0.05 0.021614285 -8.3709658 9.8044423e-20 1.1374614
0.015269602 -0.05 0.020804856 -8.3889343 8.0738244e-20 1.1570069
0.014009196 -0.05 0.019979354 -8.4059188 7.3832359e-21 1.1749648
0.012786304 -0.05 0.019136925 -8.4211665 -5.3373413e-21 1.1909105
0.011602252 -0.05 0.018276682 -8.4352524 -2.5537973e-19 1.2042588
0.010458592 -0.05 0.017397631 -8.447235 -4.753495e-19 1.2143192
0.0093570772 -0.05 0.016498728 -8.4580706 1.5270215e-19 1.2203225
0.0082997731 -0.05 0.015579119 -8.4675193 3.9541031e-19 1.2213255
0.007289171 -0.05 0.014637973 -8.4757865 -1.2075218e-19 1.2162384
0.006328005 -0.05 0.013674206 -8.4826468 1.9477559e-19 1.2036261
0.0054193338 -0.05 0.012687095 -8.48982 2.8885372e-19 1.1824691
0.0045668904 -0.05 0.011676479 -8.4967947 1.6767032e-19 1.1508227
0.0037745453 -0.05 0.010641987 -8.504916 3.8437417e-20 1.1073222
0.003046386 -0.05 0.0095837975 -8.5149088 2.2663792e-19 1.0503518
0.0023871502 -0.05 0.0085032344 -8.5276817 3.1481166e-19 0.97854979
0.0018014114 -0.05 0.0074017733 -8.5438488 3.2119658e-19 0.8905419
0.0012935088 -0.05 0.006281915 -8.5645079 1.8344534e-19 0.78657659
0.00086736679 -0.05 0.0051476981 -8.5898848 3.4652837e-20 0.66703262
0.00052606352 -0.05 0.0040035244 -8.6198267 3.3014609e-20 0.53282864
0.00027134922 -0.05 0.0028546998 -8.6542358 -6.219647e-20 0.38766689
0.00010330469 -0.05 0.0017072821 -8.6922422 1.0863683e-19 0.2348777
2.043076e-05 -0.05 0.0005673362 -8.7328101 -3.0280827e-20 0.078544513
0.99689368 -0.05 0.0004496762 -6.5737935 3.3897624e-20 -0.30858837
0.99068052 -0.05 0.0013455353 -6.5723774 2.0076131e-20 -0.30620686
0.98446635 -0.05 0.002234407 -6.5709613 2.0881077e-20 -0.3038236
0.9782512 -0.05 0.0031163182 -6.5695516 -3.8432759e-21 -0.30145914
0.97203508 -0.05 0.0039913751 -6.5682082 7.3575263e-21 -0.29914815
0.96581802 -0.05 0.0048597361 -6.5669139 3.8784347e-20 -0.29689208
0.95960003 -0.05 0.0057213841 -6.5655842 -3.5280195e-20 -0.29456864
0.95338112 -0.05 0.0065763825 -6.5643578 -3.5324153e-20 -0.29235667
0.94716132 -0.05 0.0074248863 -6.5631252 8.920378e-20 -0.29013861
0.94094064 -0.05 0.0082669799 -6.5619251 -2.9619102e-20 -0.28798223
0.9347191 -0.05 0.0091026682 -6.560725 8.3715248e-20 -0.28576815
0.92849672 -0.05 0.0099320114 -6.5596086 -4.4112112e-20 -0.28365356
0.9222735 -0.05 0.010755086 -6.5584384 3.2161835e-20 -0.28149027
0.91604946 -0.05 0.011571927 -6.5573159 1.8402607e-20 -0.27939774
0.90982463 -0.05 0.012382686 -6.5562422 3.3611982e-20 -0.27733798
0.903599 -0.05 0.013187359 -6.5551569 -2.6098336e-20 -0.27524401
0.8973726 -0.05 0.013985979 -6.5541314 -5.507308e-20 -0.27320647
0.89114545 -0.05 0.014778682 -6.5531432 2.8840916e-20 -0.27120589
0.88491753 -0.05 0.01556548 -6.5521194 -9.144061e-21 -0.26917561
0.87868888 -0.05 0.016346318 -6.5510882 6.2900561e-20 -0.26713482
0.87245949 -0.05 0.017121333 -6.5501441 -5.2437216e-20 -0.26519883
0.86622939 -0.05 0.017890593 -6.5491845 -3.6493905e-20 -0.26320498
0.85999858 -0.05 0.018654069 -6.5482473 5.8825872e-20 -0.26124933
0.85376708 -0.05 0.019411849 -6.5473094 -3.8743089e-20 -0.25931313
0.84753488 -0.05 0.020163994 -6.5464056 5.4213822e-21 -0.25739942
0.84130202 -0.05 0.020910491 -6.5455035 8.4462527e-20 -0.25545503
0.83506847 -0.05 0.021651303 -6.5446025 5.0132115e-21 -0.25351545
0.82883428 -0.05 0.022386607 -6.5437679 -5.6043915e-20 -0.25169037
0.82259942 -0.05 0.023116362 -6.5428576 -1.6882028e-20 -0.24972293
0.81636392 -0.05 0.023840521 -6.5420326 5.9218638e-20 -0.24786607
0.81012778 -0.05 0.024559163 -6.5411835 9.8412075e-21 -0.24595304
0.80389101 -0.05 0.0252723 -6.540368 -4.4966312e-20 -0.24410189
0.79765362 -0.05 0.025979962 -6.5395268 5.9722968e-20 -0.24221021
0.79141559 -0.05 0.026682104 -6.5387103 7.3371071e-21 -0.24032713
0.78517697 -0.05 0.027378813 -6.5379311 5.8418306e-20 -0.23849575
0.77893773 -0.05 0.028070053 -6.53711 -4.9755779e-20 -0.23658725
0.77269789 -0.05 0.028755794 -6.5363324 1.6554805e-20 -0.23473372
0.76645745 -0.05 0.029436096 -6.5355405 -5.2043665e-20 -0.2328667
0.76021642 -0.05 0.030110944 -6.5347526 4.4089164e-20 -0.23100225
0.7539748 -0.05 0.030780329 -6.533982 -5.5560961e-20 -0.22912849
0.74773259 -0.05 0.031444223 -6.5331922 1.3315653e-20 -0.22724442
0.7414898 -0.05 0.03210261 -6.5324214 5.1018782e-20 -0.22535876
0.73524643 -0.05 0.032755476 -6.5316665 4.5645465e-20 -0.22346569
0.72900249 -0.05 0.033402785 -6.5309101 5.6086629e-21 -0.2215556
0.72275797 -0.05 0.034044571 -6.5301863 -7.0045009e-20 -0.2196851
0.71651289 -0.05 0.034680863 -6.5294477 9.8324364e-21 -0.2177948
0.71026723 -0.05 0.035311486 -6.5286553 7.241258e-20 -0.21580306
0.70402101 -0.05 0.035936492 -6.5279408 4.7303377e-20 -0.21394718
0.69777423 -0.05 0.036555847 -6.5271459 -8.5280727e-21 -0.21193136
0.69152688 -0.05 0.037169456 -6.5264136 -1.7435057e-20 -0.21001075
0.68527898 -0.05 0.037777377 -6.5256587 -4.5000069e-21 -0.2080342
0.67903051 -0.05 0.038379511 -6.5249002 -2.6374893e-20 -0.20604483
0.67278149 -0.05 0.038975868 -6.5241676 -5.2632682e-21 -0.20407516
0.66653191 -0.05 0.039566333 -6.5233903 1.332689e-20 -0.20200579
0.66028177 -0.05 0.040150805 -6.5226531 3.7336734e-22 -0.19996691
0.65403108 -0.05 0.040729368 -6.5219179 -2.1365572e-21 -0.19795535
0.64777983 -0.05 0.041301936 -6.5211576 -1.8336624e-20 -0.19585635
0.64152802 -0.05 0.041868344 -6.5203913 -1.1243069e-23 -0.19373034
0.63527566 -0.05 0.042428558 -6.5196226 -2.0579774e-20 -0.19160793
0.62902275 -0.05 0.042982581 -6.5188753 -2.6803549e-20 -0.18948317
0.62276928 -0.05 0.043530275 -6.5181067 -1.3237012e-20 -0.18726688
0.61651524 -0.05 0.044071554 -6.517348 1.6204571e-20 -0.18508257
0.61026066 -0.05 0.044606418 -6.5165711 -5.7327992e-21 -0.18286298
0.60400552 -0.05 0.045134719 -6.515798 2.3753254e-20 -0.1805798
0.59774983 -0.05 0.045656388 -6.5150464 1.5717603e-20 -0.17831064
0.59149357 -0.05 0.04617134 -6.5142589 1.4067545e-20 -0.17596901
0.58523675 -0.05 0.046679483 -6.5134737 -2.7964751e-21 -0.1736361
0.57897939 -0.05 0.047180702 -6.5126768 5.4772175e-22 -0.17121434
0.57272146 -0.05 0.047674853 -6.5118899 -2.3209469e-20 -0.16878266
0.56646297 -0.05 0.048161902 -6.5111076 -1.5215882e-22 -0.16633744
0.56020393 -0.05 0.048641729 -6.51032 -2.589204e-21 -0.16382143
0.55394431 -0.05 0.04911417 -6.5095187 -6.2635705e-21 -0.16126461
0.54768415 -0.05 0.049579154 -6.5087287 -1.0226319e-20 -0.1586991
0.54142342 -0.05 0.050036519 -6.5079165 4.1720934e-21 -0.15602971
0.53516213 -0.05 0.050486126 -6.5071128 -1.7329151e-20 -0.15336814
0.52890029 -0.05 0.050927904 -6.506312 -4.2598234e-21 -0.15064941
0.52263788 -0.05 0.05136168 -6.5055046 -2.4662595e-20 -0.14786916
0.51637492 -0.05 0.051787313 -6.5046905 -1.9253856e-20 -0.14505239
0.5101114 -0.05 0.052204634 -6.5038781 9.9795675e-21 -0.14215586
0.50384732 -0.05 0.052613507 -6.5030696 -6.6369093e-21 -0.13924463
0.49758268 -0.05 0.053013807 -6.5022526 1.5070929e-20 -0.13626184
0.49131749 -0.05 0.053405337 -6.5014456 4.4325423e-22 -0.13321442
0.48505175 -0.05 0.053787894 -6.5006257 -5.6436399e-21 -0.13009147
0.47878546 -0.05 0.054161352 -6.499823 4.9192001e-21 -0.12695798
0.47251862 -0.05 0.054525575 -6.499019 -1.118413e-21 -0.12373951
0.46625124 -0.05 0.05488031 -6.4982034 1.1442082e-20 -0.1204328
0.45998332 -0.05 0.055225345 -6.4973861 -6.5681896e-21 -0.11706645
0.45371487 -0.05 0.055560515 -6.4965814 1.1078241e-21 -0.11364739
0.44744589 -0.05 0.05588564 -6.4957853 1.6494681e-20 -0.1101548
0.44117637 -0.05 0.056200491 -6.4950084 6.2054692e-21 -0.10657943
0.43490635 -0.05 0.056504829 -6.4942418 1.9097913e-21 -0.10292206
0.42863581 -0.05 0.056798443 -6.4934805 -5.9311927e-21 -0.099200741
0.42236477 -0.05 0.057081135 -6.492721 -4.5294132e-22 -0.095406434
0.41609323 -0.05 0.057352655 -6.4919597 -3.4095508e-21 -0.091512222
0.40982121 -0.05 0.057612725 -6.4912219 -1.2647812e-21 -0.087527131
0.40354872 -0.05 0.057861121 -6.4905112 -6.6851104e-21 -0.083477328
0.39727577 -0.05 0.058097556 -6.4898151 -1.5926846e-21 -0.07929603
0.39100236 -0.05 0.058321723 -6.4891386 -5.5697315e-21 -0.075032917
0.38472853 -0.05 0.058533406 -6.4884799 -2.6021946e-22 -0.070703227
0.37845427 -0.05 0.058732365 -6.4878326 4.697751e-21 -0.066273486
0.37217961 -0.05 0.0589182 -6.4872157 1.4774336e-21 -0.061669903
0.36590457 -0.05 0.059090591 -6.4866399 8.0838937e-22 -0.057018849
0.35962917 -0.05 0.059249298 -6.4861069 -7.9692142e-22 -0.052249149
0.35335343 -0.05 0.059393982 -6.4855961 -2.7499163e-22 -0.047365406
0.34707738 -0.05 0.059524288 -6.4851233 4.2251093e-22 -0.04235063
0.34080103 -0.05 0.059639828 -6.48469 -4.2431712e-22 -0.037199503
0.33452442 -0.05 0.059740272 -6.4843041 3.3346422e-22 -0.031957667
0.3282476 -0.05 0.059825231 -6.4839706 1.0776969e-22 -0.026537541
0.32197057 -0.05 0.059894279 -6.4836917 -2.5393111e-22 -0.02100293
0.31569338 -0.05 0.059947026 -6.4834602 2.9021667e-23 -0.015314769
0.30941608 -0.05 0.059983058 -6.4833075 -4.6247304e-23 -0.0094943594
0.3031387 -0.05 0.060001942 -6.4832264 2.6605081e-24 -0.0035069931
