# yPlus  FACE_DATA 448
# x y z  yPlus
0.29716095 -0.05 -0.060003952 35.528984
0.29152372 -0.05 -0.059990521 35.392768
0.2859677 -0.05 -0.059962714 35.249506
0.28049175 -0.05 -0.059920743 35.120737
0.27509477 -0.05 -0.059864875 34.99506
0.26977563 -0.05 -0.059795406 34.872461
0.26453326 -0.05 -0.059712612 34.752859
0.25936661 -0.05 -0.059616738 34.63628
0.25427461 -0.05 -0.059508073 34.522585
0.24925623 -0.05 -0.059386864 34.411875
0.24431045 -0.05 -0.059253294 34.304009
0.23943627 -0.05 -0.059107644 34.198869
0.23463269 -0.05 -0.058950155 34.096502
0.22989872 -0.05 -0.058781092 33.996868
0.22523341 -0.05 -0.058600699 33.899858
0.22063581 -0.05 -0.058409148 33.805557
0.21610498 -0.05 -0.058206703 33.713662
0.21164 -0.05 -0.057993589 33.624374
0.20723996 -0.05 -0.057769938 33.537522
0.20290396 -0.05 -0.057536016 33.452998
0.19863113 -0.05 -0.057292038 33.370824
0.1944206 -0.05 -0.057038235 33.290874
0.19027149 -0.05 -0.056774812 33.213232
0.18618297 -0.05 -0.056501854 33.13784
0.18215421 -0.05 -0.056219613 33.064386
0.17818439 -0.05 -0.055928282 32.993209
0.1742727 -0.05 -0.055628021 32.923798
0.17041834 -0.05 -0.05531904 32.856493
0.16662052 -0.05 -0.055001501 32.79084
0.16287849 -0.05 -0.054675541 32.727291
0.15919147 -0.05 -0.054341291 32.665357
0.15555872 -0.05 -0.053998978 32.604933
0.15197949 -0.05 -0.053648715 32.546554
0.14845308 -0.05 -0.053290644 32.489489
0.14497875 -0.05 -0.052924917 32.434096
0.1415558 -0.05 -0.052551626 32.380044
0.13818355 -0.05 -0.05217093 32.327278
0.13486131 -0.05 -0.051782947 32.276156
0.1315884 -0.05 -0.051387844 32.225841
0.12836416 -0.05 -0.050985731 32.177052
0.12518796 -0.05 -0.050576637 32.129541
0.12205913 -0.05 -0.050160743 32.082688
0.11897705 -0.05 -0.04973817 32.037073
0.11594111 -0.05 -0.049308935 31.992501
0.11295071 -0.05 -0.04887311 31.948865
0.11000524 -0.05 -0.048430828 31.905791
0.10710412 -0.05 -0.04798212 31.864217
0.10424677 -0.05 -0.047527078 31.822468
0.1014326 -0.05 -0.047065858 31.781502
0.09866109 -0.05 -0.046598401 31.741977
0.09593168 -0.05 -0.04612476 31.702159
0.093243824 -0.05 -0.045645077 31.66291
0.090597019 -0.05 -0.045159266 31.625167
0.087990745 -0.05 -0.044667393 31.586576
0.08542449 -0.05 -0.04416952 31.549336
0.082897762 -0.05 -0.043665674 31.511371
0.080410071 -0.05 -0.043155893 31.474609
0.077960971 -0.05 -0.042640073 31.438405
0.075550003 -0.05 -0.042118202 31.402275
0.073176701 -0.05 -0.041590352 31.365672
0.070840621 -0.05 -0.041056539 31.329684
0.068541357 -0.05 -0.04051665 31.294547
0.066278498 -0.05 -0.03997064 31.259031
0.064051633 -0.05 -0.039418504 31.223922
0.061860386 -0.05 -0.038860149 31.189509
0.059704388 -0.05 -0.038295488 31.155419
0.057583276 -0.05 -0.037724455 31.121587
0.055496709 -0.05 -0.037146948 31.088471
0.05344434 -0.05 -0.03656293 31.054723
0.051425875 -0.05 -0.03597221 31.024017
0.049441026 -0.05 -0.035374635 30.992077
0.047489491 -0.05 -0.034770137 30.961957
0.045571017 -0.05 -0.034158533 30.93236
0.043685369 -0.05 -0.033539632 30.904916
0.041832355 -0.05 -0.032913159 30.879727
0.040011778 -0.05 -0.032278918 30.855425
0.03822344 -0.05 -0.031636758 30.832646
0.036467211 -0.05 -0.030986392 30.813539
0.034742991 -0.05 -0.030327512 30.796787
0.033050705 -0.05 -0.029659803 30.784176
0.031390305 -0.05 -0.02898295 30.774306
0.029761786 -0.05 -0.028296598 30.769861
0.028165206 -0.05 -0.027600317 30.7703
0.026600638 -0.05 -0.026893726 30.77584
0.025068233 -0.05 -0.026176339 30.789237
0.023568205 -0.05 -0.025447642 30.809277
0.022100817 -0.05 -0.024707126 30.837999
0.020666455 -0.05 -0.023954166 30.877189
0.01926553 -0.05 -0.023188193 30.924799
0.017898622 -0.05 -0.022408484 30.988145
0.016566393 -0.05 -0.021614285 31.061889
0.015269602 -0.05 -0.020804856 31.152725
0.014009196 -0.05 -0.019979354 31.258465
0.012786304 -0.05 -0.019136925 31.384
0.011602251 -0.05 -0.018276681 31.527589
0.010458592 -0.05 -0.017397631 31.695651
0.0093570772 -0.05 -0.016498728 31.88466
0.0082997731 -0.05 -0.015579119 32.097678
0.007289171 -0.05 -0.014637973 32.33536
0.006328005 -0.05 -0.013674206 32.601173
0.0054193338 -0.05 -0.012687094 32.88604
0.0045668904 -0.05 -0.011676479 33.194553
0.0037745453 -0.05 -0.010641987 33.518086
0.003046386 -0.05 -0.0095837975 33.850207
0.0023871502 -0.05 -0.0085032344 34.180794
0.0018014113 -0.05 -0.0074017733 34.499187
0.0012935088 -0.05 -0.006281915 34.786511
0.00086736679 -0.05 -0.0051476981 35.027879
0.00052606352 -0.05 -0.0040035244 35.209651
0.00027134922 -0.05 -0.0028546998 35.316098
0.0001033047 -0.05 -0.0017072821 35.340878
2.043076e-05 -0.05 -0.0005673362 35.282962
0.99689368 -0.05 -0.00044967621 35.392562
0.99068052 -0.05 -0.0013455353 35.395726
0.98446635 -0.05 -0.0022344071 35.398914
0.9782512 -0.05 -0.0031163183 35.402123
0.97203508 -0.05 -0.0039913751 35.405132
0.96581802 -0.05 -0.0048597361 35.408017
0.95960002 -0.05 -0.0057213841 35.410998
0.95338112 -0.05 -0.0065763825 35.413684
0.94716132 -0.05 -0.0074248863 35.416412
0.94094064 -0.05 -0.0082669799 35.419094
0.9347191 -0.05 -0.0091026682 35.421727
0.92849672 -0.05 -0.0099320114 35.42413
0.9222735 -0.05 -0.010755086 35.426735
0.91604946 -0.05 -0.011571927 35.429232
0.90982463 -0.05 -0.012382685 35.431571
0.903599 -0.05 -0.013187359 35.433941
0.8973726 -0.05 -0.013985979 35.436131
0.89114545 -0.05 -0.014778682 35.438216
0.88491754 -0.05 -0.01556548 35.440443
0.87868888 -0.05 -0.016346318 35.442709
0.87245949 -0.05 -0.017121333 35.444725
0.86622939 -0.05 -0.017890593 35.446763
0.85999858 -0.05 -0.018654069 35.448761
0.85376707 -0.05 -0.019411849 35.450799
0.84753488 -0.05 -0.020163994 35.452728
0.84130202 -0.05 -0.020910491 35.454633
0.83506847 -0.05 -0.021651303 35.456554
0.82883427 -0.05 -0.022386607 35.458319
0.82259942 -0.05 -0.023116362 35.460286
0.81636392 -0.05 -0.02384052 35.462006
0.81012778 -0.05 -0.024559163 35.463789
0.80389101 -0.05 -0.0252723 35.465504
0.79765362 -0.05 -0.025979962 35.467306
0.79141559 -0.05 -0.026682104 35.469023
0.78517697 -0.05 -0.027378813 35.470642
0.77893774 -0.05 -0.028070053 35.472386
0.77269789 -0.05 -0.028755794 35.474006
0.76645745 -0.05 -0.029436095 35.475691
0.76021642 -0.05 -0.030110944 35.477377
0.75397479 -0.05 -0.030780329 35.478992
0.74773259 -0.05 -0.031444223 35.480697
0.7414898 -0.05 -0.03210261 35.482333
0.73524643 -0.05 -0.032755476 35.483906
0.72900249 -0.05 -0.033402785 35.485486
0.72275797 -0.05 -0.034044571 35.486974
0.71651289 -0.05 -0.034680863 35.488524
0.71026723 -0.05 -0.035311486 35.490237
0.70402101 -0.05 -0.035936492 35.491743
0.69777423 -0.05 -0.036555847 35.49348
0.69152688 -0.05 -0.037169456 35.495039
0.68527898 -0.05 -0.037777377 35.496667
0.67903051 -0.05 -0.038379511 35.498316
0.67278149 -0.05 -0.038975868 35.499884
0.66653191 -0.05 -0.039566333 35.501583
0.66028177 -0.05 -0.040150805 35.503148
0.65403108 -0.05 -0.040729368 35.504744
0.64777983 -0.05 -0.041301937 35.506398
0.64152802 -0.05 -0.041868344 35.508076
0.63527566 -0.05 -0.042428558 35.509787
0.62902274 -0.05 -0.042982581 35.51142
0.62276928 -0.05 -0.043530275 35.513096
0.61651524 -0.05 -0.044071554 35.514773
0.61026066 -0.05 -0.044606417 35.516526
0.60400552 -0.05 -0.04513472 35.518234
0.59774982 -0.05 -0.045656388 35.51988
0.59149357 -0.05 -0.046171339 35.521654
0.58523676 -0.05 -0.046679483 35.523447
0.57897939 -0.05 -0.047180702 35.525253
0.57272146 -0.05 -0.047674853 35.527032
0.56646297 -0.05 -0.048161902 35.528806
0.56020393 -0.05 -0.048641729 35.530581
0.55394431 -0.05 -0.049114169 35.532417
0.54768415 -0.05 -0.049579154 35.534225
0.54142342 -0.05 -0.050036519 35.536092
0.53516213 -0.05 -0.050486126 35.537956
0.52890029 -0.05 -0.050927903 35.539802
0.52263788 -0.05 -0.051361679 35.54167
0.51637492 -0.05 -0.051787313 35.543579
0.5101114 -0.05 -0.052204634 35.545467
0.50384732 -0.05 -0.052613507 35.547364
0.49758268 -0.05 -0.053013807 35.549295
0.49131749 -0.05 -0.053405337 35.551183
0.48505175 -0.05 -0.053787894 35.553127
0.47878546 -0.05 -0.054161352 35.555029
0.47251862 -0.05 -0.054525574 35.556935
0.46625124 -0.05 -0.05488031 35.558892
0.45998333 -0.05 -0.055225345 35.560874
0.45371487 -0.05 -0.055560516 35.562823
0.44744588 -0.05 -0.05588564 35.564748
0.44117637 -0.05 -0.056200491 35.566603
0.43490635 -0.05 -0.056504829 35.56843
0.42863581 -0.05 -0.056798443 35.570263
0.42236477 -0.05 -0.057081135 35.572117
0.41609323 -0.05 -0.057352654 35.574002
0.40982121 -0.05 -0.057612725 35.575812
0.40354872 -0.05 -0.05786112 35.577545
0.39727577 -0.05 -0.058097557 35.579238
0.39100236 -0.05 -0.058321724 35.580891
0.38472852 -0.05 -0.058533407 35.582521
0.37845427 -0.05 -0.058732365 35.584151
0.37217961 -0.05 -0.0589182 35.585683
0.36590457 -0.05 -0.059090591 35.587107
0.35962917 -0.05 -0.059249298 35.588405
0.35335343 -0.05 -0.059393982 35.589677
0.34707738 -0.05 -0.059524288 35.590854
0.34080103 -0.05 -0.059639828 35.591939
0.33452442 -0.05 -0.059740272 35.59291
0.3282476 -0.05 -0.059825231 35.593742
0.32197057 -0.05 -0.059894279 35.594441
0.31569338 -0.05 -0.059947026 35.595047
0.30941608 -0.05 -0.059983058 35.595429
0.3031387 -0.05 -0.060001942 35.59563
0.29716094 -0.05 0.060003951 35.528984
0.29152372 -0.05 0.059990521 35.392768
0.28596771 -0.05 0.059962714 35.249506
0.28049176 -0.05 0.059920744 35.120737
0.27509477 -0.05 0.059864875 34.99506
0.26977563 -0.05 0.059795406 34.872461
0.26453326 -0.05 0.059712612 34.752859
0.25936661 -0.05 0.059616738 34.63628
0.25427461 -0.05 0.059508073 34.522585
0.24925624 -0.05 0.059386864 34.411875
0.24431046 -0.05 0.059253294 34.304009
0.23943627 -0.05 0.059107644 34.198869
0.23463269 -0.05 0.058950155 34.096502
0.22989872 -0.05 0.058781092 33.996868
0.22523341 -0.05 0.058600699 33.899858
0.22063581 -0.05 0.058409148 33.805557
0.21610498 -0.05 0.058206703 33.713662
0.21164 -0.05 0.057993589 33.624374
0.20723996 -0.05 0.057769938 33.537522
0.20290397 -0.05 0.057536016 33.452998
0.19863113 -0.05 0.057292039 33.370824
0.1944206 -0.05 0.057038235 33.290874
0.19027149 -0.05 0.056774813 33.213232
0.18618296 -0.05 0.056501854 33.13784
0.18215421 -0.05 0.056219613 33.064386
0.17818439 -0.05 0.055928282 32.993209
0.1742727 -0.05 0.055628021 32.923798
0.17041834 -0.05 0.05531904 32.856493
0.16662052 -0.05 0.055001501 32.79084
0.16287849 -0.05 0.054675541 32.727291
0.15919147 -0.05 0.054341291 32.665357
0.15555871 -0.05 0.053998978 32.604933
0.15197949 -0.05 0.053648715 32.546554
0.14845308 -0.05 0.053290645 32.489489
0.14497875 -0.05 0.052924917 32.434096
0.14155581 -0.05 0.052551626 32.380044
0.13818355 -0.05 0.052170931 32.327278
0.13486131 -0.05 0.051782947 32.276156
0.1315884 -0.05 0.051387844 32.225841
0.12836416 -0.05 0.050985731 32.177052
0.12518796 -0.05 0.050576637 32.129541
0.12205913 -0.05 0.050160743 32.082688
0.11897705 -0.05 0.04973817 32.037073
0.11594111 -0.05 0.049308935 31.992501
0.11295071 -0.05 0.04887311 31.948865
0.11000524 -0.05 0.048430828 31.905791
0.10710412 -0.05 0.04798212 31.864217
0.10424677 -0.05 0.047527078 31.822468
0.10143261 -0.05 0.047065858 31.781502
0.09866109 -0.05 0.046598401 31.741977
0.09593168 -0.05 0.04612476 31.702159
0.093243824 -0.05 0.045645077 31.66291
0.090597019 -0.05 0.045159266 31.625167
0.087990745 -0.05 0.044667393 31.586576
0.08542449 -0.05 0.04416952 31.549336
0.082897762 -0.05 0.043665674 31.511371
0.080410071 -0.05 0.043155893 31.474609
0.077960971 -0.05 0.042640072 31.438405
0.075550003 -0.05 0.042118202 31.402275
0.073176702 -0.05 0.041590352 31.365672
0.070840621 -0.05 0.04105654 31.329684
0.068541357 -0.05 0.04051665 31.294547
0.066278498 -0.05 0.03997064 31.259031
0.064051633 -0.05 0.039418504 31.223922
0.061860386 -0.05 0.038860149 31.189509
0.059704388 -0.05 0.038295487 31.155419
0.057583276 -0.05 0.037724455 31.121587
0.055496709 -0.05 0.037146948 31.088471
0.053444339 -0.05 0.03656293 31.054723
0.051425875 -0.05 0.03597221 31.024017
0.049441026 -0.05 0.035374635 30.992077
0.047489491 -0.05 0.034770137 30.961957
0.045571017 -0.05 0.034158533 30.93236
0.043685369 -0.05 0.033539632 30.904916
0.041832355 -0.05 0.032913159 30.879727
0.040011777 -0.05 0.032278918 30.855425
0.03822344 -0.05 0.031636758 30.832646
0.036467211 -0.05 0.030986392 30.813539
0.034742991 -0.05 0.030327512 30.796787
0.033050705 -0.05 0.029659803 30.784176
0.031390305 -0.05 0.02898295 30.774306
0.029761786 -0.05 0.028296598 30.769861
0.028165206 -0.05 0.027600317 30.7703
0.026600638 -0.05 0.026893726 30.77584
0.025068233 -0.05 0.026176339 30.789237
0.023568205 -0.05 0.025447642 30.809277
0.022100817 -0.05 0.024707127 30.837999
0.020666455 -0.05 0.023954166 30.877189
0.01926553 -0.05 0.023188193 30.924799
0.017898621 -0.05 0.022408484 30.988145
0.016566393 -0.05 0.021614285 31.061889
0.015269602 -0.05 0.020804856 31.152725
0.014009196 -0.05 0.019979354 31.258465
0.012786304 -0.05 0.019136925 31.384
0.011602252 -0.05 0.018276682 31.527589
0.010458592 -0.05 0.017397631 31.695651
0.0093570772 -0.05 0.016498728 31.88466
0.0082997731 -0.05 0.015579119 32.097678
0.007289171 -0.05 0.014637973 32.33536
0.006328005 -0.05 0.013674206 32.601173
0.0054193338 -0.05 0.012687095 32.88604
0.0045668904 -0.05 0.011676479 33.194553
0.0037745453 -0.05 0.010641987 33.518086
0.003046386 -0.05 0.0095837975 33.850207
0.0023871502 -0.05 0.0085032344 34.180794
0.0018014114 -0.05 0.0074017733 34.499187
0.0012935088 -0.05 0.006281915 34.786511
0.00086736679 -0.05 0.0051476981 35.027879
0.00052606352 -0.05 0.0040035244 35.209651
0.00027134922 -0.05 0.0028546998 35.316098
0.00010330469 -0.05 0.0017072821 35.340878
2.043076e-05 -0.05 0.0005673362 35.282962
0.99689368 -0.05 0.0004496762 35.392562
0.99068052 -0.05 0.0013455353 35.395726
0.98446635 -0.05 0.002234407 35.398914
0.9782512 -0.05 0.0031163182 35.402123
0.97203508 -0.05 0.0039913751 35.405132
0.96581802 -0.05 0.0048597361 35.408017
0.95960003 -0.05 0.0057213841 35.410998
0.95338112 -0.05 0.0065763825 35.413684
0.94716132 -0.05 0.0074248863 35.416412
0.94094064 -0.05 0.0082669799 35.419094
0.9347191 -0.05 0.0091026682 35.421727
0.92849672 -0.05 0.0099320114 35.42413
0.9222735 -0.05 0.010755086 35.426735
0.91604946 -0.05 0.011571927 35.429232
0.90982463 -0.05 0.012382686 35.431571
0.903599 -0.05 0.013187359 35.433941
0.8973726 -0.05 0.013985979 35.436131
0.89114545 -0.05 0.014778682 35.438216
0.88491753 -0.05 0.01556548 35.440443
0.87868888 -0.05 0.016346318 35.442709
0.87245949 -0.05 0.017121333 35.444725
0.86622939 -0.05 0.017890593 35.446763
0.85999858 -0.05 0.018654069 35.448761
0.85376708 -0.05 0.019411849 35.450799
0.84753488 -0.05 0.020163994 35.452728
0.84130202 -0.05 0.020910491 35.454633
0.83506847 -0.05 0.021651303 35.456554
0.82883428 -0.05 0.022386607 35.458319
0.82259942 -0.05 0.023116362 35.460286
0.81636392 -0.05 0.023840521 35.462006
0.81012778 -0.05 0.024559163 35.463789
0.80389101 -0.05 0.0252723 35.465504
0.79765362 -0.05 0.025979962 35.467306
0.79141559 -0.05 0.026682104 35.469023
0.78517697 -0.05 0.027378813 35.470642
0.77893773 -0.05 0.028070053 35.472386
0.77269789 -0.05 0.028755794 35.474006
0.76645745 -0.05 0.029436096 35.475691
0.76021642 -0.05 0.030110944 35.477377
0.7539748 -0.05 0.030780329 35.478992
0.74773259 -0.05 0.031444223 35.480697
0.7414898 -0.05 0.03210261 35.482333
0.73524643 -0.05 0.032755476 35.483906
0.72900249 -0.05 0.033402785 35.485486
0.72275797 -0.05 0.034044571 35.486974
0.71651289 -0.05 0.034680863 35.488524
0.71026723 -0.05 0.035311486 35.490237
0.70402101 -0.05 0.035936492 35.491743
0.69777423 -0.05 0.036555847 35.49348
0.69152688 -0.05 0.037169456 35.495039
0.68527898 -0.05 0.037777377 35.496667
0.67903051 -0.05 0.038379511 35.498316
0.67278149 -0.05 0.038975868 35.499884
0.66653191 -0.05 0.039566333 35.501583
0.66028177 -0.05 0.040150805 35.503148
0.65403108 -0.05 0.040729368 35.504744
0.64777983 -0.05 0.041301936 35.506398
0.64152802 -0.05 0.041868344 35.508076
0.63527566 -0.05 0.042428558 35.509787
0.62902275 -0.05 0.042982581 35.51142
0.62276928 -0.05 0.043530275 35.513096
0.61651524 -0.05 0.044071554 35.514773
0.61026066 -0.05 0.044606418 35.516526
0.60400552 -0.05 0.045134719 35.518234
0.59774983 -0.05 0.045656388 35.51988
0.59149357 -0.05 0.04617134 35.521654
0.58523675 -0.05 0.046679483 35.523447
0.57897939 -0.05 0.047180702 35.525253
0.57272146 -0.05 0.047674853 35.527032
0.56646297 -0.05 0.048161902 35.528806
0.56020393 -0.05 0.048641729 35.530581
0.55394431 -0.05 0.04911417 35.532417
0.54768415 -0.05 0.049579154 35.534225
0.54142342 -0.05 0.050036519 35.536092
0.53516213 -0.05 0.050486126 35.537956
0.52890029 -0.05 0.050927904 35.539802
0.52263788 -0.05 0.05136168 35.54167
0.51637492 -0.05 0.051787313 35.543579
0.5101114 -0.05 0.052204634 35.545467
0.50384732 -0.05 0.052613507 35.547364
0.49758268 -0.05 0.053013807 35.549295
0.49131749 -0.05 0.053405337 35.551183
0.48505175 -0.05 0.053787894 35.553127
0.47878546 -0.05 0.054161352 35.555029
0.47251862 -0.05 0.054525575 35.556935
0.46625124 -0.05 0.05488031 35.558892
0.45998332 -0.05 0.055225345 35.560874
0.45371487 -0.05 0.055560515 35.562823
0.44744589 -0.05 0.05588564 35.564748
0.44117637 -0.05 0.056200491 35.566603
0.43490635 -0.05 0.056504829 35.56843
0.42863581 -0.05 0.056798443 35.570263
0.42236477 -0.05 0.057081135 35.572117
0.41609323 -0.05 0.057352655 35.574002
0.40982121 -0.05 0.057612725 35.575812
0.40354872 -0.05 0.057861121 35.577545
0.39727577 -0.05 0.058097556 35.579238
0.39100236 -0.05 0.058321723 35.580891
0.38472853 -0.05 0.058533406 35.582521
0.37845427 -0.05 0.058732365 35.584151
0.37217961 -0.05 0.0589182 35.585683
0.36590457 -0.05 0.059090591 35.587107
0.35962917 -0.05 0.059249298 35.588405
0.35335343 -0.05 0.059393982 35.589677
0.34707738 -0.05 0.059524288 35.590854
0.34080103 -0.05 0.059639828 35.591939
0.33452442 -0.05 0.059740272 35.59291
0.3282476 -0.05 0.059825231 35.593742
0.32197057 -0.05 0.059894279 35.594441
0.31569338 -0.05 0.059947026 35.595047
0.30941608 -0.05 0.059983058 35.595429
0.3031387 -0.05 0.060001942 35.59563
