# p  FACE_DATA 448
# x y z  p
0.29773273 -0.05 -0.059550111 99559.442
0.29209564 -0.05 -0.059590601 99553.81
0.28653961 -0.05 -0.059615939 99548.16
0.2810635 -0.05 -0.059626347 99542.682
0.27566623 -0.05 -0.059622104 99537.332
0.27034667 -0.05 -0.059603516 99532.246
0.26510375 -0.05 -0.059570869 99527.255
0.25993642 -0.05 -0.059524419 99522.463
0.25484362 -0.05 -0.059464464 99517.599
0.24982431 -0.05 -0.059391261 99512.946
0.24487747 -0.05 -0.059305004 99508.519
0.24000212 -0.05 -0.059205982 99504.318
0.23519725 -0.05 -0.059094448 99500.229
0.23046188 -0.05 -0.058970673 99496.122
0.22579506 -0.05 -0.058834911 99492.081
0.22119584 -0.05 -0.058687345 99488.307
0.21666328 -0.05 -0.058528247 99484.568
0.21219647 -0.05 -0.058357851 99481.073
0.20779448 -0.05 -0.058176297 99477.774
0.20345645 -0.05 -0.05798386 99474.519
0.19918148 -0.05 -0.057780763 99471.453
0.19496871 -0.05 -0.057567246 99468.486
0.19081727 -0.05 -0.057343521 99465.714
0.18672633 -0.05 -0.057109682 99463.137
0.18269506 -0.05 -0.056865988 99460.427
0.17872263 -0.05 -0.056612642 99457.852
0.17480825 -0.05 -0.056349811 99455.363
0.17095111 -0.05 -0.056077712 99453.128
0.16715042 -0.05 -0.055796513 99450.948
0.16340544 -0.05 -0.055506361 99449.004
0.1597154 -0.05 -0.055207393 99447.217
0.15607954 -0.05 -0.054899842 99445.591
0.15249713 -0.05 -0.054583831 99444.324
0.14896745 -0.05 -0.054259506 99443.185
0.14548978 -0.05 -0.053927028 99442.251
0.14206342 -0.05 -0.053586495 99441.468
0.13868768 -0.05 -0.053238072 99440.82
0.13536189 -0.05 -0.052881883 99440.401
0.13208535 -0.05 -0.052518104 99439.984
0.1288574 -0.05 -0.052146851 99439.847
0.12567744 -0.05 -0.051768155 99439.979
0.12254478 -0.05 -0.051382208 99440.105
0.11945879 -0.05 -0.050989134 99440.429
0.11641888 -0.05 -0.050588958 99441.015
0.11342445 -0.05 -0.050181756 99441.806
0.11047488 -0.05 -0.049767667 99442.71
0.1075696 -0.05 -0.04934673 99444.025
0.10470804 -0.05 -0.048919039 99445.347
0.10188959 -0.05 -0.048484758 99446.794
0.09911373 -0.05 -0.048043831 99448.704
0.096379913 -0.05 -0.047596319 99450.661
0.093687592 -0.05 -0.047142368 99452.757
0.091036261 -0.05 -0.046681897 99455.412
0.088425401 -0.05 -0.046214974 99458.116
0.085854501 -0.05 -0.045741671 99461.255
0.083323069 -0.05 -0.045262015 99464.322
0.080830617 -0.05 -0.044776053 99467.656
0.078376695 -0.05 -0.044283681 99471.473
0.075960846 -0.05 -0.043784896 99475.771
0.073582604 -0.05 -0.043279771 99480.157
0.071241524 -0.05 -0.042768328 99484.832
0.068937201 -0.05 -0.042250454 99490.019
0.066669223 -0.05 -0.041726114 99495.46
0.064437179 -0.05 -0.041195305 99501.268
0.062240692 -0.05 -0.040657934 99507.547
0.060079391 -0.05 -0.04011392 99514.285
0.057952914 -0.05 -0.039563203 99521.494
0.055860919 -0.05 -0.03900568 99529.224
0.053803056 -0.05 -0.03844132 99537.17
0.051779034 -0.05 -0.037869933 99546.047
0.049788561 -0.05 -0.03729137 99555.392
0.047831333 -0.05 -0.036705568 99565.334
0.045907097 -0.05 -0.036112341 99575.837
0.044015615 -0.05 -0.035511505 99587.076
0.042156693 -0.05 -0.034902784 99599.34
0.040330132 -0.05 -0.034285987 99612.504
0.038535735 -0.05 -0.033660962 99626.541
0.036773365 -0.05 -0.033027423 99641.569
0.035042922 -0.05 -0.032385066 99657.358
0.033344327 -0.05 -0.031733575 99674.637
0.031677528 -0.05 -0.031072633 99692.999
0.030042519 -0.05 -0.03040189 99712.937
0.028439353 -0.05 -0.029720913 99734.43
0.026868097 -0.05 -0.029029318 99757.49
0.025328901 -0.05 -0.028326622 99782.491
0.023821971 -0.05 -0.027612306 99809.49
0.022347566 -0.05 -0.02688586 99838.706
0.020906068 -0.05 -0.026146654 99870.509
0.019497882 -0.05 -0.025394116 99904.765
0.018123578 -0.05 -0.024627517 99942.349
0.016783814 -0.05 -0.023846097 99983.142
0.015479339 -0.05 -0.023049109 100027.75
0.014211095 -0.05 -0.022235701 100076.33
0.012980201 -0.05 -0.021405008 100129.26
0.011787974 -0.05 -0.020556128 100186.96
0.010635959 -0.05 -0.019688058 100251.06
0.0095258964 -0.05 -0.018799731 100321.33
0.0084598447 -0.05 -0.017890278 100397.1
0.0074402868 -0.05 -0.016958841 100479.74
0.0064699462 -0.05 -0.016004312 100569.4
0.0055518749 -0.05 -0.015025937 100665.54
0.0046898039 -0.05 -0.014023521 100768.76
0.0038876001 -0.05 -0.012996655 100877.5
0.0031493525 -0.05 -0.01194548 100990.24
0.0024798113 -0.05 -0.010871272 101104.58
0.0018835636 -0.05 -0.0097754633 101217.27
0.0013649728 -0.05 -0.0086605144 101323.27
0.00092800152 -0.05 -0.0075304255 101416.59
0.00057576982 -0.05 -0.0063895687 101493.61
0.00031007861 -0.05 -0.0052432331 101550.73
0.00013106669 -0.05 -0.0040974752 101581.96
3.7292921e-05 -0.05 -0.0029583741 101587.54
0.99686381 -0.05 0.0066944102 99957.502
0.99065951 -0.05 0.005739163 99974.526
0.98445413 -0.05 0.0047908932 99961.643
0.97824769 -0.05 0.0038495741 99968.075
0.97204023 -0.05 0.0029150999 99964.25
0.96583176 -0.05 0.0019873122 99965.201
0.95962229 -0.05 0.0010662283 99963.702
0.95341184 -0.05 0.0001517848 99963.28
0.94720044 -0.05 -0.00075617281 99962.266
0.9409881 -0.05 -0.0016577288 99961.476
0.93477485 -0.05 -0.0025528881 99960.506
0.92856069 -0.05 -0.0034417107 99959.578
0.92234562 -0.05 -0.004324273 99958.561
0.91612967 -0.05 -0.0052006098 99957.55
0.90991288 -0.05 -0.006070872 99956.469
0.90369524 -0.05 -0.006935057 99955.388
0.89747676 -0.05 -0.0077931962 99954.24
0.89125747 -0.05 -0.0086454254 99953.083
0.88503737 -0.05 -0.0094917581 99951.868
0.87881647 -0.05 -0.010332138 99950.638
0.87259478 -0.05 -0.011166702 99949.35
0.86637232 -0.05 -0.011995518 99948.051
0.8601491 -0.05 -0.012818557 99946.693
0.85392513 -0.05 -0.013635906 99945.318
0.84770042 -0.05 -0.014447628 99943.892
0.84147498 -0.05 -0.015253708 99942.44
0.8352488 -0.05 -0.016054111 99940.937
0.82902193 -0.05 -0.016849011 99939.403
0.82279434 -0.05 -0.017638369 99937.821
0.81656605 -0.05 -0.018422138 99936.206
0.81033707 -0.05 -0.019200397 99934.546
0.8041074 -0.05 -0.019973155 99932.848
0.79787706 -0.05 -0.020740446 99931.098
0.79164605 -0.05 -0.021502223 99929.313
0.78541437 -0.05 -0.022258573 99927.473
0.77918203 -0.05 -0.023009461 99925.594
0.77294903 -0.05 -0.023754854 99923.662
0.76671538 -0.05 -0.024494814 99921.689
0.76048109 -0.05 -0.025229327 99919.654
0.75424616 -0.05 -0.025958383 99917.573
0.74801058 -0.05 -0.026681954 99915.435
0.74177438 -0.05 -0.027400024 99913.246
0.73553754 -0.05 -0.028112577 99911.002
0.72930007 -0.05 -0.028819581 99908.708
0.72306198 -0.05 -0.029521065 99906.353
0.71682327 -0.05 -0.030217063 99903.939
0.71058394 -0.05 -0.030907397 99901.47
0.70434398 -0.05 -0.03159212 99898.919
0.69810341 -0.05 -0.032271197 99896.321
0.69186221 -0.05 -0.032944534 99893.636
0.68562041 -0.05 -0.033612189 99890.885
0.67937798 -0.05 -0.034274063 99888.057
0.67313496 -0.05 -0.034930165 99885.149
0.66689131 -0.05 -0.03558038 99882.173
0.66064704 -0.05 -0.036224607 99879.107
0.65440217 -0.05 -0.036862933 99875.948
0.64815669 -0.05 -0.037495268 99872.715
0.64191058 -0.05 -0.038121448 99869.402
0.63566387 -0.05 -0.038741441 99865.999
0.62941653 -0.05 -0.039355248 99862.493
0.62316859 -0.05 -0.039962731 99858.901
0.61692003 -0.05 -0.040563807 99855.207
0.61067085 -0.05 -0.041158471 99851.42
0.60442104 -0.05 -0.041746579 99847.537
0.59817062 -0.05 -0.04232806 99843.527
0.59191958 -0.05 -0.042902829 99839.417
0.58566791 -0.05 -0.043470795 99835.198
0.57941562 -0.05 -0.044031844 99830.919
0.5731627 -0.05 -0.044585829 99826.522
0.56690917 -0.05 -0.045132719 99821.997
0.56065499 -0.05 -0.045672391 99817.379
0.55440019 -0.05 -0.046204684 99812.667
0.54814476 -0.05 -0.046729526 99807.823
0.5418887 -0.05 -0.047246754 99802.886
0.53563199 -0.05 -0.04775623 99797.816
0.52937466 -0.05 -0.048257882 99792.654
0.52311669 -0.05 -0.048751538 99787.393
0.51685808 -0.05 -0.049237057 99782.008
0.51059883 -0.05 -0.04971427 99776.515
0.50433896 -0.05 -0.050183041 99770.912
0.49807844 -0.05 -0.050643244 99765.221
0.49181728 -0.05 -0.051094683 99759.431
0.48555548 -0.05 -0.051537154 99753.514
0.47929305 -0.05 -0.051970532 99747.45
0.47302999 -0.05 -0.052394681 99741.347
0.46676628 -0.05 -0.052809348 99735.319
0.46050196 -0.05 -0.053214319 99729.266
0.45423699 -0.05 -0.053609434 99723.1
0.4479714 -0.05 -0.053994506 99716.853
0.44170519 -0.05 -0.054369311 99710.543
0.43543837 -0.05 -0.054733608 99704.127
0.42917092 -0.05 -0.055087186 99697.639
0.42290286 -0.05 -0.055429848 99691.123
0.41663421 -0.05 -0.055761343 99684.609
0.41036497 -0.05 -0.056081393 99678.029
0.40409514 -0.05 -0.056389775 99671.359
0.39782473 -0.05 -0.0566862 99664.726
0.39155376 -0.05 -0.056970363 99658.132
0.38528224 -0.05 -0.057242045 99651.445
0.37901018 -0.05 -0.057501008 99644.68
0.37273758 -0.05 -0.057746853 99638.02
0.36646448 -0.05 -0.057979257 99631.377
0.36019088 -0.05 -0.05819798 99624.691
0.35391681 -0.05 -0.058402686 99617.966
0.34764229 -0.05 -0.058593017 99611.301
0.34136733 -0.05 -0.058768584 99604.721
0.33509197 -0.05 -0.05892906 99598.037
0.32881624 -0.05 -0.059074053 99591.41
0.32254017 -0.05 -0.059203138 99584.883
0.31626378 -0.05 -0.059315924 99578.4
0.3099871 -0.05 -0.059411998 99571.709
0.30371019 -0.05 -0.059490923 99565.345
0.29658484 -0.05 0.060452303 99415.135
0.29094801 -0.05 0.060384953 99409.283
0.28539252 -0.05 0.060304004 99403.93
0.27991721 -0.05 0.060209657 99398.625
0.27452101 -0.05 0.060102169 99393.437
0.26920278 -0.05 0.059981825 99388.383
0.26396145 -0.05 0.059848892 99383.408
0.25879595 -0.05 0.059703602 99378.6
0.25370522 -0.05 0.059546238 99373.809
0.24868823 -0.05 0.059377032 99369.204
0.24374396 -0.05 0.059196163 99364.714
0.23887139 -0.05 0.059003897 99360.361
0.23406952 -0.05 0.058800469 99356.123
0.22933739 -0.05 0.058586133 99351.96
0.22467402 -0.05 0.058361125 99347.902
0.22007847 -0.05 0.058125606 99344.01
0.21554978 -0.05 0.057879833 99340.138
0.21108705 -0.05 0.057624021 99336.442
0.20668935 -0.05 0.057358294 99332.889
0.20235579 -0.05 0.057082909 99329.435
0.19808548 -0.05 0.056798072 99326.139
0.19387757 -0.05 0.056504007 99322.871
0.18973116 -0.05 0.05620091 99319.756
0.18564544 -0.05 0.055888857 99316.834
0.18161957 -0.05 0.055568094 99313.929
0.17765271 -0.05 0.055238804 99311.229
0.17374408 -0.05 0.054901142 99308.587
0.16989285 -0.05 0.054555309 99306.1
0.16609825 -0.05 0.054201457 99303.685
0.1623595 -0.05 0.053839719 99301.463
0.15867585 -0.05 0.053470219 99299.347
0.15504653 -0.05 0.053093173 99297.326
0.15147083 -0.05 0.052708691 99295.508
0.147948 -0.05 0.052316907 99293.752
0.14447732 -0.05 0.051917964 99292.153
0.1410581 -0.05 0.05151195 99290.685
0.13768964 -0.05 0.051099015 99289.36
0.13437127 -0.05 0.050679271 99288.196
0.13110229 -0.05 0.050252881 99287.063
0.12788205 -0.05 0.049819948 99286.151
0.1247099 -0.05 0.049380492 99285.446
0.1215852 -0.05 0.048934689 99284.785
0.11850729 -0.05 0.048482656 99284.283
0.1154756 -0.05 0.048024401 99283.94
0.11248951 -0.05 0.047559993 99283.734
0.1095484 -0.05 0.047089558 99283.628
0.10665171 -0.05 0.046613121 99283.835
0.10379884 -0.05 0.046130769 99284.13
0.10098922 -0.05 0.045642653 99284.615
0.098222297 -0.05 0.045148707 99285.435
0.095497543 -0.05 0.04464898 99286.29
0.092814399 -0.05 0.044143609 99287.236
0.090172361 -0.05 0.043632505 99288.538
0.087570911 -0.05 0.043115725 99289.966
0.085009535 -0.05 0.042593329 99291.776
0.082487742 -0.05 0.042065337 99293.68
0.080005041 -0.05 0.041531785 99295.865
0.077560987 -0.05 0.040992562 99298.281
0.075155121 -0.05 0.040447654 99300.899
0.072786977 -0.05 0.039897128 99303.676
0.07045611 -0.05 0.039340995 99306.786
0.068162115 -0.05 0.038779137 99310.346
0.065904582 -0.05 0.038211509 99314.228
0.0636831 -0.05 0.037638098 99318.358
0.061497294 -0.05 0.037058809 99322.718
0.059346795 -0.05 0.036473551 99327.398
0.057231243 -0.05 0.035882256 99332.609
0.055150296 -0.05 0.035284818 99338.394
0.053103605 -0.05 0.034681195 99344.613
0.051090883 -0.05 0.034071195 99351.447
0.049111842 -0.05 0.033454663 99358.392
0.047166178 -0.05 0.032831526 99365.8
0.045253642 -0.05 0.032201599 99373.872
0.043373999 -0.05 0.03156469 99382.839
0.041527062 -0.05 0.030920522 99392.746
0.039712634 -0.05 0.030268896 99403.151
0.037930521 -0.05 0.02960966 99414.043
0.036180593 -0.05 0.028942525 99426.03
0.034462754 -0.05 0.028267184 99439.206
0.032776933 -0.05 0.027583318 99453.826
0.031123083 -0.05 0.026890614 99469.479
0.029501203 -0.05 0.026188717 99485.774
0.027911356 -0.05 0.025477196 99502.982
0.026353618 -0.05 0.024755672 99522.399
0.024828145 -0.05 0.024023661 99544.245
0.023335155 -0.05 0.02328065 99568.1
0.021874918 -0.05 0.022526132 99593.293
0.020447824 -0.05 0.021759486 99620.565
0.01905429 -0.05 0.020980149 99650.954
0.017694901 -0.05 0.020187401 99684.501
0.016370331 -0.05 0.019380495 99720.334
0.01508134 -0.05 0.018558699 99758.989
0.013828888 -0.05 0.017721179 99800.49
0.01261411 -0.05 0.016867092 99846.547
0.01143834 -0.05 0.015995562 99900.114
0.010303141 -0.05 0.015105613 99961.351
0.0092102746 -0.05 0.014196214 100031.17
0.008161815 -0.05 0.013266534 100110.14
0.0071602613 -0.05 0.012315765 100196.1
0.0062083577 -0.05 0.011342848 100289.09
0.0053091698 -0.05 0.010347091 100387.8
0.0044664319 -0.05 0.009328368 100494.83
0.0036840181 -0.05 0.0082863441 100610.16
0.0029660137 -0.05 0.0072212385 100733.78
0.0023171437 -0.05 0.0061344193 100862.92
0.0017419672 -0.05 0.005027406 100994.65
0.0012447993 -0.05 0.0039027407 101124.78
0.00082952568 -0.05 0.0027644997 101248.55
0.0004991821 -0.05 0.0016171138 101359.37
0.000255468 -0.05 0.0004659054 101451.14
9.8406256e-05 -0.05 -0.00068306716 101522.53
2.6439737e-05 -0.05 -0.0018237536 101568.71
0.99685521 -0.05 0.0075937214 100190.38
0.99063377 -0.05 0.0084301104 100082.79
0.98441138 -0.05 0.0092595028 100077.3
0.97818808 -0.05 0.010081925 100056.06
0.97196387 -0.05 0.010897484 100043.97
0.9657388 -0.05 0.01170634 100031.05
0.95951284 -0.05 0.012508473 100020.21
0.95328603 -0.05 0.013303949 100009.88
0.94705841 -0.05 0.014092921 100000.38
0.94082996 -0.05 0.014875475 99991.253
0.93460072 -0.05 0.015651615 99982.807
0.92837068 -0.05 0.016421403 99974.6
0.92213987 -0.05 0.017184915 99966.899
0.91590831 -0.05 0.017942186 99959.478
0.909676 -0.05 0.018693366 99952.227
0.90344296 -0.05 0.019438454 99945.352
0.89720921 -0.05 0.020177482 99938.676
0.89097476 -0.05 0.020910585 99932.077
0.88473961 -0.05 0.021637778 99925.683
0.87850376 -0.05 0.022359003 99919.62
0.87226725 -0.05 0.023074397 99913.493
0.86603007 -0.05 0.023784032 99907.586
0.85979224 -0.05 0.024487876 99901.803
0.85355378 -0.05 0.025186015 99896.124
0.84731468 -0.05 0.025878515 99890.463
0.84107496 -0.05 0.02656536 99884.971
0.83483461 -0.05 0.027246515 99879.704
0.82859367 -0.05 0.027922155 99874.207
0.82235212 -0.05 0.028592239 99869.046
0.81610998 -0.05 0.029256722 99863.801
0.80986725 -0.05 0.029915683 99858.72
0.80362395 -0.05 0.030569132 99853.577
0.79738006 -0.05 0.031217101 99848.537
0.79113561 -0.05 0.031859544 99843.583
0.7848906 -0.05 0.032496548 99838.509
0.77864504 -0.05 0.033128079 99833.617
0.77239893 -0.05 0.033754103 99828.697
0.76615226 -0.05 0.034374683 99823.795
0.75990507 -0.05 0.034989805 99818.907
0.75365732 -0.05 0.035599459 99814.038
0.74740906 -0.05 0.036203615 99809.189
0.74116025 -0.05 0.03680226 99804.368
0.73491092 -0.05 0.037395377 99799.581
0.72866108 -0.05 0.037982934 99794.864
0.7224107 -0.05 0.038564961 99790.047
0.71615983 -0.05 0.03914149 99785.157
0.70990843 -0.05 0.039712344 99780.481
0.70365651 -0.05 0.040277576 99775.512
0.69740409 -0.05 0.040837152 99770.779
0.69115115 -0.05 0.041390976 99765.939
0.68489772 -0.05 0.041939107 99761.119
0.67864378 -0.05 0.042481447 99756.342
0.67238935 -0.05 0.043018006 99751.462
0.6661344 -0.05 0.043548667 99746.7
0.65987896 -0.05 0.044073329 99741.927
0.65362301 -0.05 0.044592078 99736.989
0.64736658 -0.05 0.045104826 99732.04
0.64110965 -0.05 0.045611408 99727.12
0.6348522 -0.05 0.046111793 99722.187
0.62859427 -0.05 0.046605981 99717.184
0.62233585 -0.05 0.047093836 99712.306
0.61607693 -0.05 0.047575271 99707.384
0.60981752 -0.05 0.048050283 99702.407
0.60355761 -0.05 0.048518731 99697.46
0.59729721 -0.05 0.04898054 99692.429
0.59103632 -0.05 0.049435626 99687.372
0.58477493 -0.05 0.0498839 99682.186
0.57851305 -0.05 0.050325244 99677.055
0.57225068 -0.05 0.050759515 99671.934
0.56598782 -0.05 0.051186679 99666.789
0.55972447 -0.05 0.051606615 99661.685
0.55346063 -0.05 0.052019162 99656.581
0.54719631 -0.05 0.052424246 99651.37
0.54093149 -0.05 0.052821706 99646.182
0.53466619 -0.05 0.053211403 99640.869
0.5284004 -0.05 0.053593266 99635.499
0.52213414 -0.05 0.053967122 99630.097
0.51586738 -0.05 0.054332829 99624.634
0.50960015 -0.05 0.054690221 99619.244
0.50333246 -0.05 0.055039159 99613.842
0.49706428 -0.05 0.05537952 99608.396
0.49079563 -0.05 0.055711104 99602.892
0.48452652 -0.05 0.056033711 99597.381
0.47825694 -0.05 0.056347216 99591.742
0.47198691 -0.05 0.056651479 99586.018
0.46571642 -0.05 0.05694625 99580.292
0.45944548 -0.05 0.057231316 99574.543
0.45317412 -0.05 0.057506514 99568.74
0.4469023 -0.05 0.057771661 99562.85
0.44063007 -0.05 0.05802653 99556.869
0.43435742 -0.05 0.058270881 99550.894
0.42808436 -0.05 0.058504503 99544.937
0.4218109 -0.05 0.058727199 99538.905
0.41553705 -0.05 0.058938718 99532.829
0.40926283 -0.05 0.059138785 99526.73
0.40298826 -0.05 0.059327173 99520.539
0.39671333 -0.05 0.059503597 99514.347
0.39043806 -0.05 0.059667748 99508.155
0.38416248 -0.05 0.059819412 99501.9
0.37788662 -0.05 0.059958347 99495.594
0.37161046 -0.05 0.060084157 99489.374
0.36533406 -0.05 0.06019652 99483.113
0.35905744 -0.05 0.060295195 99476.839
0.3527806 -0.05 0.060379845 99470.553
0.34650358 -0.05 0.060450114 99464.276
0.34022642 -0.05 0.060505615 99458.035
0.33394914 -0.05 0.060546019 99451.725
0.32767178 -0.05 0.060570935 99445.485
0.32139439 -0.05 0.060579939 99439.332
0.31511698 -0.05 0.060572643 99433.249
0.30883962 -0.05 0.060548632 99426.829
0.30256235 -0.05 0.060507471 99420.087
