# wallShearStress  FACE_DATA 448
# x y z  wallShearStress_x wallShearStress_y wallShearStress_z
0.29773273 -0.05 -0.059550111 -6.6874326 -1.8958425e-17 -0.041227502
0.29209564 -0.05 -0.059590601 -6.9753322 -5.2199328e-18 -0.023943784
0.28653961 -0.05 -0.059615939 -7.2488532 8.014625e-18 -0.0058156959
0.2810635 -0.05 -0.059626347 -7.5246976 -4.5052871e-18 0.014745881
0.27566623 -0.05 -0.059622104 -7.802733 2.4823912e-18 0.037283172
0.27034667 -0.05 -0.059603516 -8.0820796 -3.1408869e-17 0.060140495
0.26510375 -0.05 -0.059570869 -8.3612507 1.4513532e-18 0.084379522
0.25993642 -0.05 -0.059524419 -8.6407824 2.5365412e-17 0.11061206
0.25484362 -0.05 -0.059464464 -8.9213815 -4.1257873e-17 0.13910121
0.24982431 -0.05 -0.059391261 -9.2029362 -3.0149569e-17 0.16975346
0.24487747 -0.05 -0.059305004 -9.4838983 6.1609945e-17 0.20206461
0.24000212 -0.05 -0.059205982 -9.7636266 -1.46872e-17 0.23609803
0.23519725 -0.05 -0.059094448 -10.039534 6.1371073e-17 0.27173647
0.23046188 -0.05 -0.058970673 -10.30855 -2.1410924e-16 0.30911867
0.22579506 -0.05 -0.058834911 -10.57037 -1.588899e-16 0.34839944
0.22119584 -0.05 -0.058687345 -10.823746 -3.1442981e-17 0.38946081
0.21666328 -0.05 -0.058528247 -11.069499 1.0164995e-16 0.43214253
0.21219647 -0.05 -0.058357851 -11.31223 -6.365603e-17 0.47694568
0.20779448 -0.05 -0.058176297 -11.555436 -1.9255694e-18 0.52339724
0.20345645 -0.05 -0.05798386 -11.802621 6.2865326e-17 0.57136622
0.19918148 -0.05 -0.057780763 -12.049483 1.2827885e-16 0.62075665
0.19496871 -0.05 -0.057567246 -12.288683 -4.0887548e-17 0.67128885
0.19081727 -0.05 -0.057343521 -12.510568 -1.7910907e-16 0.72350778
0.18672633 -0.05 -0.057109682 -12.708876 -1.3648119e-16 0.77772658
0.18269506 -0.05 -0.056865988 -12.88511 3.0290781e-17 0.83508435
0.17872263 -0.05 -0.056612642 -13.057784 1.9574461e-16 0.89697088
0.17480825 -0.05 -0.056349811 -13.245965 -3.0444918e-16 0.96320238
0.17095111 -0.05 -0.056077712 -13.462774 1.1701961e-16 1.0340338
0.16715042 -0.05 -0.055796513 -13.695361 4.9266719e-16 1.1082775
0.16340544 -0.05 -0.055506361 -13.943207 1.8273437e-16 1.18649
0.1597154 -0.05 -0.055207393 -14.208418 8.7183217e-17 1.2680979
0.15607954 -0.05 -0.054899842 -14.500759 2.0972881e-16 1.3537918
0.15249713 -0.05 -0.054583831 -14.826076 -2.8273521e-16 1.4446518
0.14896745 -0.05 -0.054259506 -15.178093 6.2562408e-16 1.5406202
0.14548978 -0.05 -0.053927028 -15.545285 4.4077314e-16 1.6415424
0.14206342 -0.05 -0.053586495 -15.917014 2.3442755e-16 1.7465205
0.13868768 -0.05 -0.053238072 -16.287173 3.7829974e-16 1.8552597
0.13536189 -0.05 -0.052881883 -16.651833 -6.3825907e-16 1.9677104
0.13208535 -0.05 -0.052518104 -17.009102 -4.3217026e-16 2.0834373
0.1288574 -0.05 -0.052146851 -17.357678 -4.435839e-16 2.2027952
0.12567744 -0.05 -0.051768155 -17.695287 -8.1461837e-17 2.324866
0.12254478 -0.05 -0.051382208 -18.022439 -5.3386697e-17 2.4508053
0.11945879 -0.05 -0.050989134 -18.339051 3.591982e-16 2.5803438
0.11641888 -0.05 -0.050588958 -18.643499 -3.0514185e-16 2.7129634
0.11342445 -0.05 -0.050181756 -18.935445 -2.1046841e-16 2.8482679
0.11047488 -0.05 -0.049767667 -19.215167 -9.2191789e-16 2.9864455
0.1075696 -0.05 -0.04934673 -19.481551 5.6765655e-16 3.1274148
0.10470804 -0.05 -0.048919039 -19.734903 -2.5598522e-16 3.2707382
0.10188959 -0.05 -0.048484758 -19.977432 5.4490166e-16 3.4175369
0.09911373 -0.05 -0.048043831 -20.207123 -4.9970485e-17 3.5671898
0.096379913 -0.05 -0.047596319 -20.424587 -3.6192094e-16 3.7191188
0.093687592 -0.05 -0.047142368 -20.630906 -2.3172027e-16 3.8744567
0.091036261 -0.05 -0.046681897 -20.82373 1.0473519e-16 4.0324076
0.088425401 -0.05 -0.046214974 -21.004009 6.8132663e-16 4.1925188
0.085854501 -0.05 -0.045741671 -21.171699 1.6227371e-16 4.3553436
0.083323069 -0.05 -0.045262015 -21.327764 -4.8020042e-16 4.5206757
0.080830617 -0.05 -0.044776053 -21.472434 -4.0670536e-16 4.689253
0.078376695 -0.05 -0.044283681 -21.604183 -2.0957884e-17 4.8599926
0.075960846 -0.05 -0.043784896 -21.722322 -3.4944799e-16 5.032924
0.073582604 -0.05 -0.043279771 -21.825942 -1.8902826e-16 5.207967
0.071241524 -0.05 -0.042768328 -21.915217 1.6440478e-16 5.3859731
0.068937201 -0.05 -0.042250454 -21.988047 -1.1548636e-16 5.5662391
0.066669223 -0.05 -0.041726114 -22.045317 -1.6950151e-16 5.7483201
0.064437179 -0.05 -0.041195305 -22.086501 -1.3980503e-16 5.9329163
0.062240692 -0.05 -0.040657934 -22.110644 -3.9701143e-16 6.1195712
0.060079391 -0.05 -0.04011392 -22.117365 -7.2154531e-16 6.3079888
0.057952914 -0.05 -0.039563203 -22.106498 -3.2893898e-16 6.4981889
0.055860919 -0.05 -0.03900568 -22.077485 5.8975933e-16 6.6898009
0.053803056 -0.05 -0.03844132 -22.031441 -8.2600565e-16 6.8839481
0.051779034 -0.05 -0.037869933 -21.965171 -6.2595764e-16 7.0797414
0.049788561 -0.05 -0.03729137 -21.879255 1.4239966e-16 7.2768567
0.047831333 -0.05 -0.036705568 -21.773994 -8.4249714e-17 7.4752318
0.045907097 -0.05 -0.036112341 -21.648861 -1.5087244e-16 7.6756107
0.044015615 -0.05 -0.035511505 -21.502962 -1.2395935e-16 7.8773264
0.042156693 -0.05 -0.034902784 -21.334123 4.5277527e-16 8.0793146
0.040330132 -0.05 -0.034285987 -21.141922 -4.2206973e-17 8.2809364
0.038535735 -0.05 -0.033660962 -20.926209 8.8546019e-16 8.4836179
0.036773365 -0.05 -0.033027423 -20.687436 -8.1230623e-17 8.6860749
0.035042922 -0.05 -0.032385066 -20.429008 9.5366639e-16 8.885423
0.033344327 -0.05 -0.031733575 -20.14222 -3.3871805e-16 9.0846269
0.031677528 -0.05 -0.031072633 -19.829039 7.4945205e-16 9.2806463
0.030042519 -0.05 -0.03040189 -19.48803 8.7904264e-17 9.4738535
0.028439353 -0.05 -0.029720913 -19.118014 5.3748836e-16 9.6622313
0.026868097 -0.05 -0.029029318 -18.717913 4.1747014e-16 9.8449931
0.025328901 -0.05 -0.028326622 -18.286105 9.0119001e-16 10.020614
0.023821971 -0.05 -0.027612306 -17.822377 1.1101588e-16 10.187642
0.022347566 -0.05 -0.02688586 -17.325761 2.8269178e-16 10.34436
0.020906068 -0.05 -0.026146654 -16.794478 -1.6073949e-16 10.48772
0.019497882 -0.05 -0.025394116 -16.228778 -1.4465587e-16 10.617048
0.018123578 -0.05 -0.024627517 -15.625906 2.01924e-17 10.727244
0.016783814 -0.05 -0.023846097 -14.985546 1.8682993e-16 10.815864
0.015479339 -0.05 -0.023049109 -14.307095 -4.9286673e-17 10.878085
0.014211095 -0.05 -0.022235701 -13.590249 8.3131582e-16 10.9101
0.012980201 -0.05 -0.021405008 -12.835432 2.8516501e-16 10.906788
0.011787974 -0.05 -0.020556128 -12.042806 1.0037858e-15 10.863938
0.010635959 -0.05 -0.019688058 -11.210899 1.0121719e-16 10.768716
0.0095258964 -0.05 -0.018799731 -10.340368 6.3872066e-17 10.613532
0.0084598447 -0.05 -0.017890278 -9.4384922 6.5615703e-16 10.397735
0.0074402868 -0.05 -0.016958841 -8.5125012 4.4344722e-17 10.110501
0.0064699462 -0.05 -0.016004312 -7.5638115 4.6765852e-16 9.7410308
0.0055518749 -0.05 -0.015025937 -6.6010811 3.4897262e-16 9.2774889
0.0046898039 -0.05 -0.014023521 -5.639802 4.6304737e-16 8.7034117
0.0038876001 -0.05 -0.012996655 -4.6965829 -2.1655146e-17 8.0117657
0.0031493525 -0.05 -0.01194548 -3.790618 4.4621568e-16 7.2104634
0.0024798113 -0.05 -0.010871272 -2.9427578 4.3639526e-16 6.3037576
0.0018835636 -0.05 -0.0097754633 -2.1611656 9.7444264e-17 5.3026226
0.0013649728 -0.05 -0.0086605144 -1.4807838 2.6137894e-16 4.2342887
0.00092800152 -0.05 -0.0075304255 -0.94040357 2.9735083e-16 3.1355524
0.00057576982 -0.05 -0.0063895687 -0.54560065 4.6455217e-17 2.0400713
0.00031007861 -0.05 -0.0052432331 -0.31894943 1.1559885e-16 1.1212129
0.00013106669 -0.05 -0.0040974752 -0.1917673 -8.334875e-17 0.44907324
3.7292921e-05 -0.05 -0.0029583741 -0.14939863 -6.0140239e-18 -0.118062
0.99686381 -0.05 0.0066944102 0.096861615 3.459165e-16 -0.19411433
0.99065951 -0.05 0.005739163 -0.002073063 -1.2510555e-16 2.4041701e-05
0.98445413 -0.05 0.0047908932 0.005928715 -4.3338071e-16 0.00079415334
0.97824769 -0.05 0.0038495741 -0.0024214472 -2.8593099e-16 -0.00027103968
0.97204023 -0.05 0.0029150999 0.0026785938 1.6567377e-16 0.00022482569
0.96583176 -0.05 0.0019873122 0.00053149285 3.8565089e-16 -7.5584073e-07
0.95962229 -0.05 0.0010662283 0.0018362151 -9.2500601e-16 0.00018825651
0.95341184 -0.05 0.0001517848 0.0013917199 -1.9559377e-16 0.00010365481
0.94720044 -0.05 -0.00075617281 0.001759435 -5.2620095e-16 0.00016687079
0.9409881 -0.05 -0.0016577288 0.0017396247 -1.2072772e-16 0.00014432115
0.93477485 -0.05 -0.0025528881 0.0018966008 -3.3103613e-16 0.00016934654
0.92856069 -0.05 -0.0034417107 0.0019652563 9.2619599e-16 0.00016448089
0.92234562 -0.05 -0.004324273 0.002072217 2.7759493e-16 0.0001795115
0.91612967 -0.05 -0.0052006098 0.0021564534 -3.5334213e-16 0.00017830673
0.90991288 -0.05 -0.006070872 0.0022715385 3.9895686e-16 0.00019290762
0.90369524 -0.05 -0.006935057 0.0023555731 -3.1651079e-16 0.0001883339
0.89747676 -0.05 -0.0077931962 0.0024684546 -4.5544997e-16 0.00020497788
0.89125747 -0.05 -0.0086454254 0.0025421496 -3.9232345e-16 0.00020960619
0.88503737 -0.05 -0.0094917581 0.0026259141 6.3147362e-16 0.00022238348
0.87881647 -0.05 -0.010332138 0.0027338439 -2.0907057e-17 0.0002263745
0.87259478 -0.05 -0.011166702 0.0028436984 4.0824932e-16 0.00023852035
0.86637232 -0.05 -0.011995518 0.0029530268 -1.0091972e-16 0.00024531677
0.8601491 -0.05 -0.012818557 0.0030726428 -6.9110524e-16 0.00026310745
0.85392513 -0.05 -0.013635906 0.0032162582 -2.0808708e-16 0.00027730213
0.84770042 -0.05 -0.014447628 0.0033558294 4.7876272e-16 0.00027504191
0.84147498 -0.05 -0.015253708 0.0034711857 -3.1382865e-16 0.00027667151
0.8352488 -0.05 -0.016054111 0.003608081 1.371817e-16 0.00028453445
0.82902193 -0.05 -0.016849011 0.0037172724 4.0718099e-17 0.00029335005
0.82279434 -0.05 -0.017638369 0.0038597555 1.0041771e-17 0.00030286552
0.81656605 -0.05 -0.018422138 0.0039880175 -4.5852848e-16 0.00030126272
0.81033707 -0.05 -0.019200397 0.004286875 3.6495107e-16 0.00030062017
0.8041074 -0.05 -0.019973155 0.0046578312 -1.0820008e-15 0.00030119931
0.79787706 -0.05 -0.020740446 0.0051570723 -5.9018481e-16 0.00026423528
0.79164605 -0.05 -0.021502223 0.0077945195 2.5887591e-16 0.00039053598
0.78541437 -0.05 -0.022258573 0.0082694567 5.4428668e-17 0.00067245397
0.77918203 -0.05 -0.023009461 0.0082081282 -2.1718799e-16 0.0006869061
0.77294903 -0.05 -0.023754854 0.0082825042 2.22554e-16 0.00069658908
0.76671538 -0.05 -0.024494814 0.0073953481 -4.3279749e-16 0.00057051679
0.76048109 -0.05 -0.025229327 0.0078630463 3.9814497e-16 0.00058891926
0.75424616 -0.05 -0.025958383 0.0075993705 3.7583337e-16 0.00056177418
0.74801058 -0.05 -0.026681954 0.0070924912 4.5258275e-16 0.00049855409
0.74177438 -0.05 -0.027400024 0.0063190444 5.5146068e-16 0.00040347087
0.73553754 -0.05 -0.028112577 0.0052132031 6.4464682e-16 0.00026008539
0.72930007 -0.05 -0.028819581 0.0036505164 3.4244355e-16 6.7100921e-05
0.72306198 -0.05 -0.029521065 0.0016146248 -7.9368099e-16 -0.00016420047
0.71682327 -0.05 -0.030217063 -0.00096889747 2.91029e-16 -0.00043018662
0.71058394 -0.05 -0.030907397 -0.00367187 5.3597642e-16 -0.00069092346
0.70434398 -0.05 -0.03159212 -0.0062029286 9.2662461e-16 -0.00097641564
0.69810341 -0.05 -0.032271197 -0.0092131531 5.3898661e-16 -0.001302952
0.69186221 -0.05 -0.032944534 -0.012709779 9.2052255e-16 -0.0016718589
0.68562041 -0.05 -0.033612189 -0.016806197 2.9720096e-16 -0.0020971362
0.67937798 -0.05 -0.034274063 -0.021483837 1.778254e-16 -0.002573127
0.67313496 -0.05 -0.034930165 -0.026838878 -5.4157221e-16 -0.0031063318
0.66689131 -0.05 -0.03558038 -0.032889678 3.635562e-16 -0.0036986332
0.66064704 -0.05 -0.036224607 -0.039706533 -8.8375406e-16 -0.0043505198
0.65440217 -0.05 -0.036862933 -0.047550617 -4.3662345e-16 -0.0050798635
0.64815669 -0.05 -0.037495268 -0.056598855 -2.0178073e-16 -0.0059034572
0.64191058 -0.05 -0.038121448 -0.066886057 -1.9329422e-16 -0.0068247112
0.63566387 -0.05 -0.038741441 -0.07846535 -1.8449155e-16 -0.0078487975
0.62941653 -0.05 -0.039355248 -0.091448212 1.3711388e-16 -0.008975949
0.62316859 -0.05 -0.039962731 -0.1058904 1.0007566e-16 -0.010212567
0.61692003 -0.05 -0.040563807 -0.12178033 -1.3537622e-16 -0.011550418
0.61067085 -0.05 -0.041158471 -0.13923435 3.886802e-17 -0.01299594
0.60442104 -0.05 -0.041746579 -0.15823444 2.9334118e-16 -0.014543194
0.59817062 -0.05 -0.04232806 -0.17895356 -2.4538215e-17 -0.016195714
0.59191958 -0.05 -0.042902829 -0.20151502 -4.1430131e-16 -0.017960675
0.58566791 -0.05 -0.043470795 -0.22616664 -7.1942892e-17 -0.019917344
0.57941562 -0.05 -0.044031844 -0.25479031 2.6582357e-16 -0.022037564
0.5731627 -0.05 -0.044585829 -0.28558213 7.7434642e-17 -0.024331978
0.56690917 -0.05 -0.045132719 -0.31884463 1.6527588e-16 -0.026752879
0.56065499 -0.05 -0.045672391 -0.35469093 1.1919011e-16 -0.029308992
0.55440019 -0.05 -0.046204684 -0.3929953 6.0983106e-17 -0.03198517
0.54814476 -0.05 -0.046729526 -0.43400082 -2.0059366e-16 -0.03477827
0.5418887 -0.05 -0.047246754 -0.47787428 -1.0926478e-16 -0.037686706
0.53563199 -0.05 -0.04775623 -0.52473096 3.449608e-16 -0.040714127
0.52937466 -0.05 -0.048257882 -0.57478086 -1.1286079e-16 -0.043863814
0.52311669 -0.05 -0.048751538 -0.62799582 -2.4744965e-17 -0.047119262
0.51685808 -0.05 -0.049237057 -0.68457874 4.8137456e-17 -0.050468017
0.51059883 -0.05 -0.04971427 -0.74483649 2.9332027e-17 -0.053915096
0.50433896 -0.05 -0.050183041 -0.80894376 -5.0783532e-16 -0.057476551
0.49807844 -0.05 -0.050643244 -0.87729147 1.1180831e-16 -0.061149191
0.49181728 -0.05 -0.051094683 -0.94955895 -4.3515201e-16 -0.064872027
0.48555548 -0.05 -0.051537154 -1.026031 -5.3992232e-17 -0.068640879
0.47929305 -0.05 -0.051970532 -1.1070926 7.5700718e-17 -0.072487005
0.47302999 -0.05 -0.052394681 -1.1946308 9.2153908e-17 -0.076641017
0.46676628 -0.05 -0.052809348 -1.2954769 -2.7195133e-16 -0.081604537
0.46050196 -0.05 -0.053214319 -1.4126176 1.3499426e-16 -0.08696065
0.45423699 -0.05 -0.053609434 -1.534469 -4.6032081e-16 -0.091862688
0.4479714 -0.05 -0.053994506 -1.6603241 3.0471388e-16 -0.096599498
0.44170519 -0.05 -0.054369311 -1.7910574 4.4021234e-16 -0.10080878
0.43543837 -0.05 -0.054733608 -1.9270621 -4.2346414e-16 -0.10447984
0.42917092 -0.05 -0.055087186 -2.069227 -1.9678343e-16 -0.10841806
0.42290286 -0.05 -0.055429848 -2.218059 -1.8846378e-16 -0.11245846
0.41663421 -0.05 -0.055761343 -2.3733011 -1.0878373e-16 -0.11618537
0.41036497 -0.05 -0.056081393 -2.5352992 -4.0594171e-16 -0.11955918
0.40409514 -0.05 -0.056389775 -2.7046672 -1.5068926e-16 -0.12256404
0.39782473 -0.05 -0.0566862 -2.8812182 -3.1616081e-17 -0.12512344
0.39155376 -0.05 -0.056970363 -3.0641997 3.5651452e-16 -0.12716776
0.38528224 -0.05 -0.057242045 -3.2544298 2.3493659e-16 -0.12863509
0.37901018 -0.05 -0.057501008 -3.4527 1.0949934e-16 -0.12944523
0.37273758 -0.05 -0.057746853 -3.6584244 2.4158659e-16 -0.12950027
0.36646448 -0.05 -0.057979257 -3.8708521 2.7810297e-18 -0.12879145
0.36019088 -0.05 -0.05819798 -4.0910214 -1.4892428e-16 -0.12715498
0.35391681 -0.05 -0.058402686 -4.3193761 2.0245278e-17 -0.12453174
0.34764229 -0.05 -0.058593017 -4.5557348 -1.6750867e-17 -0.12084457
0.34136733 -0.05 -0.058768584 -4.7992774 1.2237118e-16 -0.11597975
0.33509197 -0.05 -0.05892906 -5.050035 8.8778608e-17 -0.10982053
0.32881624 -0.05 -0.059074053 -5.3082903 9.6507369e-18 -0.10215118
0.32254017 -0.05 -0.059203138 -5.5746956 2.2468674e-17 -0.09302771
0.31626378 -0.05 -0.059315924 -5.8480201 -4.8905239e-17 -0.082265531
0.3099871 -0.05 -0.059411998 -6.1295175 -8.8273594e-17 -0.069887756
0.30371019 -0.05 -0.059490923 -6.4051413 -9.3360893e-17 -0.05578832
0.29658484 -0.05 0.060452303 -7.1087682 -8.7357617e-17 -0.075213844
0.29094801 -0.05 0.060384953 -6.9405505 -6.9994286e-17 -0.091270684
0.28539252 -0.05 0.060304004 -6.7979912 -1.2707586e-16 -0.10690773
0.27991721 -0.05 0.060209657 -6.6599472 -1.1303512e-17 -0.12234579
0.27452101 -0.05 0.060102169 -6.5293443 -1.2601632e-16 -0.13745844
0.26920278 -0.05 0.059981825 -6.405341 -2.2169662e-17 -0.15222734
0.26396145 -0.05 0.059848892 -6.2881161 -2.092579e-16 -0.16661994
0.25879595 -0.05 0.059703602 -6.1776081 -1.1026177e-17 -0.18077211
0.25370522 -0.05 0.059546238 -6.0738159 -1.1731432e-16 -0.19460659
0.24868823 -0.05 0.059377032 -5.9765771 -3.1554484e-17 -0.20838049
0.24374396 -0.05 0.059196163 -5.8847109 -1.9641595e-17 -0.22190766
0.23887139 -0.05 0.059003897 -5.797779 -1.0282602e-17 -0.23524514
0.23406952 -0.05 0.058800469 -5.7143812 -6.5069395e-17 -0.24837819
0.22933739 -0.05 0.058586133 -5.6342405 1.2007386e-17 -0.26142493
0.22467402 -0.05 0.058361125 -5.5581863 1.9599526e-16 -0.27447065
0.22007847 -0.05 0.058125606 -5.4857258 5.0995231e-16 -0.28744919
0.21554978 -0.05 0.057879833 -5.4169924 2.5856701e-16 -0.30030895
0.21108705 -0.05 0.057624021 -5.3521208 -6.8818769e-18 -0.31328184
0.20668935 -0.05 0.057358294 -5.2902173 -1.5324077e-16 -0.32616736
0.20235579 -0.05 0.057082909 -5.2315926 2.4924371e-16 -0.33901977
0.19808548 -0.05 0.056798072 -5.1762278 -1.6938897e-16 -0.35191696
0.19387757 -0.05 0.056504007 -5.1241386 -3.5990804e-16 -0.36484382
0.18973116 -0.05 0.05620091 -5.0755553 3.2598113e-16 -0.3780094
0.18564544 -0.05 0.055888857 -5.0295543 -3.9763942e-16 -0.39122835
0.18161957 -0.05 0.055568094 -4.9864833 -2.5704085e-16 -0.4045008
0.17765271 -0.05 0.055238804 -4.9466537 3.2965322e-16 -0.41805045
0.17374408 -0.05 0.054901142 -4.9092765 -2.4676136e-16 -0.43164905
0.16989285 -0.05 0.054555309 -4.8748626 -5.9492185e-17 -0.4455196
0.16609825 -0.05 0.054201457 -4.8428912 -7.8352225e-17 -0.45958607
0.1623595 -0.05 0.053839719 -4.8134393 3.4688118e-17 -0.47396704
0.15867585 -0.05 0.053470219 -4.7860955 2.6899758e-17 -0.48849235
0.15504653 -0.05 0.053093173 -4.7614498 -1.3520741e-16 -0.50334731
0.15147083 -0.05 0.052708691 -4.7391623 -7.7859099e-17 -0.51854944
0.147948 -0.05 0.052316907 -4.719059 -1.5230682e-16 -0.53400504
0.14447732 -0.05 0.051917964 -4.7016625 -7.0266468e-17 -0.54996988
0.1410581 -0.05 0.05151195 -4.6865538 -6.0774762e-16 -0.56629109
0.13768964 -0.05 0.051099015 -4.6738606 -5.291282e-16 -0.58303016
0.13437127 -0.05 0.050679271 -4.6634367 3.3322447e-16 -0.60019766
0.13110229 -0.05 0.050252881 -4.6553337 -3.3876833e-16 -0.61783158
0.12788205 -0.05 0.049819948 -4.6493794 1.7286017e-16 -0.63615126
0.1247099 -0.05 0.049380492 -4.6442659 -2.7852882e-16 -0.65475407
0.1215852 -0.05 0.048934689 -4.6407804 -3.9325384e-16 -0.67380519
0.11850729 -0.05 0.048482656 -4.6395528 -3.1417943e-16 -0.69370736
0.1154756 -0.05 0.048024401 -4.6396911 5.9113409e-17 -0.71428879
0.11248951 -0.05 0.047559993 -4.6410714 1.5694092e-16 -0.73557162
0.1095484 -0.05 0.047089558 -4.6434749 4.8189982e-18 -0.75758937
0.10665171 -0.05 0.046613121 -4.6455135 -8.7364658e-17 -0.78003395
0.10379884 -0.05 0.046130769 -4.6449831 -5.0338638e-17 -0.80218263
0.10098922 -0.05 0.045642653 -4.6426807 -2.1672941e-16 -0.82419989
0.098222297 -0.05 0.045148707 -4.6416185 -4.1220463e-16 -0.84636822
0.095497543 -0.05 0.04464898 -4.6462745 -3.0225208e-16 -0.8699417
0.092814399 -0.05 0.044143609 -4.6579661 -3.6387197e-16 -0.89598701
0.090172361 -0.05 0.043632505 -4.6741814 9.825547e-17 -0.92366553
0.087570911 -0.05 0.043115725 -4.6934459 -2.3278275e-17 -0.95246163
0.085009535 -0.05 0.042593329 -4.7160802 -4.8503672e-16 -0.9827528
0.082487742 -0.05 0.042065337 -4.7403009 -9.4951376e-17 -1.0142413
0.080005041 -0.05 0.041531785 -4.7662836 1.4184007e-17 -1.0475398
0.077560987 -0.05 0.040992562 -4.7918189 -4.0620124e-16 -1.0819382
0.075155121 -0.05 0.040447654 -4.8173076 2.8409949e-16 -1.1173187
0.072786977 -0.05 0.039897128 -4.8432546 -4.0265758e-16 -1.1537761
0.07045611 -0.05 0.039340995 -4.8693692 -1.6578598e-16 -1.1915044
0.068162115 -0.05 0.038779137 -4.8942881 -1.7143166e-16 -1.2300477
0.065904582 -0.05 0.038211509 -4.9183937 2.2113785e-17 -1.2694775
0.0636831 -0.05 0.037638098 -4.9435921 -5.7677594e-16 -1.3107616
0.061497294 -0.05 0.037058809 -4.970836 -3.8654317e-17 -1.3544151
0.059346795 -0.05 0.036473551 -5.0004074 5.3504232e-16 -1.4005256
0.057231243 -0.05 0.035882256 -5.0314581 1.5059966e-16 -1.4486975
0.055150296 -0.05 0.035284818 -5.0626642 4.0549009e-16 -1.4984806
0.053103605 -0.05 0.034681195 -5.093812 -4.9405174e-16 -1.5501077
0.051090883 -0.05 0.034071195 -5.1249641 5.4585285e-16 -1.60374
0.049111842 -0.05 0.033454663 -5.1553926 5.4567673e-16 -1.6595704
0.047166178 -0.05 0.032831526 -5.1877139 1.938352e-16 -1.7191274
0.045253642 -0.05 0.032201599 -5.219617 6.5975858e-16 -1.7812266
0.043373999 -0.05 0.03156469 -5.2493629 -2.3615605e-16 -1.8456006
0.041527062 -0.05 0.030920522 -5.2772154 5.9923599e-16 -1.911918
0.039712634 -0.05 0.030268896 -5.3044848 -6.854845e-16 -1.9816227
0.037930521 -0.05 0.02960966 -5.3354133 6.8660056e-16 -2.057614
0.036180593 -0.05 0.028942525 -5.3697691 3.0306549e-16 -2.1389727
0.034462754 -0.05 0.028267184 -5.4021525 5.6662336e-16 -2.2236727
0.032776933 -0.05 0.027583318 -5.4313466 2.1253749e-16 -2.3107797
0.031123083 -0.05 0.026890614 -5.4542501 1.7148658e-16 -2.3999137
0.029501203 -0.05 0.026188717 -5.4717143 1.1583342e-16 -2.4946247
0.027911356 -0.05 0.025477196 -5.48659 3.0716519e-16 -2.5967016
0.026353618 -0.05 0.024755672 -5.4944783 4.0943476e-16 -2.7005098
0.024828145 -0.05 0.024023661 -5.4853008 1.5007163e-16 -2.8017115
0.023335155 -0.05 0.02328065 -5.4682833 2.4371113e-17 -2.9041249
0.021874918 -0.05 0.022526132 -5.45269 5.0437965e-16 -3.0144525
0.020447824 -0.05 0.021759486 -5.4386202 7.3331653e-17 -3.1323285
0.01905429 -0.05 0.020980149 -5.4009249 4.8641839e-17 -3.2437372
0.017694901 -0.05 0.020187401 -5.3084128 -3.1380734e-16 -3.3329696
0.016370331 -0.05 0.019380495 -5.146788 1.8196527e-16 -3.398466
0.01508134 -0.05 0.018558699 -4.9380338 -3.4685007e-17 -3.4599282
0.013828888 -0.05 0.017721179 -4.7101965 4.1660071e-16 -3.5475241
0.01261411 -0.05 0.016867092 -4.5113905 2.1337271e-16 -3.7058044
0.01143834 -0.05 0.015995562 -4.3604944 -6.2608625e-16 -3.963238
0.010303141 -0.05 0.015105613 -4.2337048 -8.5038183e-16 -4.32082
0.0092102746 -0.05 0.014196214 -4.1451372 1.3539023e-17 -4.7660392
0.008161815 -0.05 0.013266534 -4.1358599 -2.5062694e-16 -5.2746721
0.0071602613 -0.05 0.012315765 -4.2250039 7.540005e-17 -5.8426795
0.0062083577 -0.05 0.011342848 -4.2811572 3.0657057e-16 -6.3639258
0.0053091698 -0.05 0.010347091 -4.2160202 2.2624622e-16 -6.7490442
0.0044664319 -0.05 0.009328368 -4.0060891 3.8167724e-16 -6.9935018
0.0036840181 -0.05 0.0082863441 -3.6672813 1.5472349e-16 -7.0561957
0.0029660137 -0.05 0.0072212385 -3.2133868 -7.7209416e-19 -6.9123873
0.0023171437 -0.05 0.0061344193 -2.6851886 9.7091713e-17 -6.5643014
0.0017419672 -0.05 0.005027406 -2.1277253 -8.1959716e-17 -6.0381417
0.0012447993 -0.05 0.0039027407 -1.5785681 1.9380671e-16 -5.3156161
0.00082952568 -0.05 0.0027644997 -1.0738876 -1.6746987e-16 -4.4476723
0.0004991821 -0.05 0.0016171138 -0.67353833 -1.0380161e-16 -3.4803593
0.000255468 -0.05 0.0004659054 -0.40817945 3.5694806e-17 -2.453403
9.8406256e-05 -0.05 -0.00068306716 -0.24377977 -2.5696722e-17 -1.4246355
2.6439737e-05 -0.05 -0.0018237536 -0.15681557 -1.617024e-17 -0.72532956
0.99685521 -0.05 0.0075937214 -62.14854 4.0521529e-16 8.1075978
0.99063377 -0.05 0.0084301104 -59.675924 -1.7513034e-15 8.0075142
0.98441138 -0.05 0.0092595028 -60.412229 -1.1567432e-15 7.9796975
0.97818808 -0.05 0.010081925 -59.736882 6.9079922e-17 7.8436056
0.97196387 -0.05 0.010897484 -59.328122 -2.3089072e-16 7.7228282
0.9657388 -0.05 0.01170634 -58.821949 6.9139336e-16 7.5938976
0.95951284 -0.05 0.012508473 -58.326307 -8.6027349e-16 7.4662106
0.95328603 -0.05 0.013303949 -57.814274 -9.2180614e-16 7.3395995
0.94705841 -0.05 0.014092921 -57.297171 4.1675743e-16 7.2138003
0.94082996 -0.05 0.014875475 -56.773717 6.7796216e-16 7.0891355
0.93460072 -0.05 0.015651615 -56.244991 -1.4075279e-18 6.964746
0.92837068 -0.05 0.016421403 -55.711451 2.211103e-16 6.8422332
0.92213987 -0.05 0.017184915 -55.172569 3.8388646e-16 6.7201432
0.91590831 -0.05 0.017942186 -54.628126 -4.2099644e-16 6.5997235
0.909676 -0.05 0.018693366 -54.078861 1.2879618e-15 6.4803105
0.90344296 -0.05 0.019438454 -53.524026 -2.30098e-16 6.3613093
0.89720921 -0.05 0.020177482 -52.963953 8.3540528e-16 6.2437345
0.89097476 -0.05 0.020910585 -52.401023 1.0955838e-15 6.1273076
0.88473961 -0.05 0.021637778 -51.836351 7.7207482e-16 6.0115191
0.87850376 -0.05 0.022359003 -51.270906 2.2035127e-15 5.8971063
0.87226725 -0.05 0.023074397 -50.706825 -1.2185495e-15 5.7850602
0.86603007 -0.05 0.023784032 -50.144566 5.0956951e-16 5.6739019
0.85979224 -0.05 0.024487876 -49.583433 1.0048901e-15 5.564573
0.85355378 -0.05 0.025186015 -49.023447 1.7625757e-15 5.4568335
0.84731468 -0.05 0.025878515 -48.464057 2.1650177e-15 5.3504365
0.84107496 -0.05 0.02656536 -47.904188 5.4737604e-16 5.2448843
0.83483461 -0.05 0.027246515 -47.341894 -4.1866471e-16 5.1406536
0.82859367 -0.05 0.027922155 -46.777726 -9.4697242e-16 5.038051
0.82235212 -0.05 0.028592239 -46.209608 7.1209603e-16 4.9350136
0.81610998 -0.05 0.029256722 -45.637747 -9.2855392e-16 4.8335699
0.80986725 -0.05 0.029915683 -45.063448 -8.5550437e-16 4.7325346
0.80362395 -0.05 0.030569132 -44.489271 1.2259187e-16 4.6329434
0.79738006 -0.05 0.031217101 -43.917944 -1.0744355e-16 4.5342892
0.79113561 -0.05 0.031859544 -43.351307 4.4042702e-16 4.4373179
0.7848906 -0.05 0.032496548 -42.791024 1.2259722e-16 4.3422378
0.77864504 -0.05 0.033128079 -42.236486 1.1924413e-15 4.2482153
0.77239893 -0.05 0.033754103 -41.687286 1.9693013e-16 4.1561907
0.76615226 -0.05 0.034374683 -41.143283 7.6869789e-16 4.0655747
0.75990507 -0.05 0.034989805 -40.602402 1.0878794e-15 3.9762905
0.75365732 -0.05 0.035599459 -40.061346 6.9093816e-17 3.8879894
0.74740906 -0.05 0.036203615 -39.51631 -1.0346361e-16 3.8002029
0.74116025 -0.05 0.03680226 -38.966514 4.1963394e-16 3.7128072
0.73491092 -0.05 0.037395377 -38.412779 -1.0078187e-17 3.6258076
0.72866108 -0.05 0.037982934 -37.858514 3.4853693e-16 3.5395291
0.7224107 -0.05 0.038564961 -37.308698 8.8066948e-17 3.4546721
0.71615983 -0.05 0.03914149 -36.767048 1.0830239e-16 3.3709937
0.70990843 -0.05 0.039712344 -36.233332 -1.6048649e-16 3.2884906
0.70365651 -0.05 0.040277576 -35.708416 5.8593104e-16 3.2083741
0.69740409 -0.05 0.040837152 -35.190053 2.3152296e-16 3.1288923
0.69115115 -0.05 0.041390976 -34.674742 3.3193079e-16 3.0513067
0.68489772 -0.05 0.041939107 -34.157809 8.1702114e-17 2.974187
0.67864378 -0.05 0.042481447 -33.633598 -1.1120438e-15 2.8973057
0.67238935 -0.05 0.043018006 -33.101245 -3.2338436e-16 2.8204146
0.6661344 -0.05 0.043548667 -32.564069 2.3110329e-16 2.7431851
0.65987896 -0.05 0.044073329 -32.030135 1.911092e-16 2.6671596
0.65362301 -0.05 0.044592078 -31.50665 9.7061863e-16 2.5927133
0.64736658 -0.05 0.045104826 -30.995369 3.908287e-16 2.5194989
0.64110965 -0.05 0.045611408 -30.494556 -1.3441102e-16 2.4479774
0.6348522 -0.05 0.046111793 -30.001282 -1.2059432e-16 2.3781578
0.62859427 -0.05 0.046605981 -29.510016 6.7091143e-16 2.3094276
0.62233585 -0.05 0.047093836 -29.012008 7.5186124e-17 2.2408109
0.61607693 -0.05 0.047575271 -28.500636 -7.4664563e-16 2.1722497
0.60981752 -0.05 0.048050283 -27.976089 5.1151072e-16 2.1030197
0.60355761 -0.05 0.048518731 -27.448281 -3.419498e-16 2.0336911
0.59729721 -0.05 0.04898054 -26.929724 -2.4792604e-16 1.9656883
0.59103632 -0.05 0.049435626 -26.423748 3.9152093e-16 1.8992599
0.58477493 -0.05 0.0498839 -25.928128 -6.047908e-16 1.8345295
0.57851305 -0.05 0.050325244 -25.441205 -2.7055759e-16 1.7710744
0.57225068 -0.05 0.050759515 -24.95653 3.574217e-16 1.7090632
0.56598782 -0.05 0.051186679 -24.464524 -3.9561607e-16 1.6477601
0.55972447 -0.05 0.051606615 -23.95291 2.7133871e-16 1.5859726
0.55346063 -0.05 0.052019162 -23.416475 -9.9003866e-17 1.5232166
0.54719631 -0.05 0.052424246 -22.866242 3.7558182e-16 1.4599375
0.54093149 -0.05 0.052821706 -22.322519 -1.2321869e-16 1.3973411
0.53466619 -0.05 0.053211403 -21.791365 5.1895678e-16 1.3365684
0.5284004 -0.05 0.053593266 -21.273097 3.6693474e-16 1.2774692
0.52213414 -0.05 0.053967122 -20.767305 3.971008e-16 1.2204307
0.51586738 -0.05 0.054332829 -20.271106 2.225373e-16 1.1654283
0.50960015 -0.05 0.054690221 -19.775786 -1.0578218e-16 1.1116121
0.50333246 -0.05 0.055039159 -19.265995 -1.5846108e-16 1.0584383
0.49706428 -0.05 0.05537952 -18.727355 -1.6496173e-16 1.0043968
0.49079563 -0.05 0.055711104 -18.174321 8.8708789e-17 0.94978255
0.48452652 -0.05 0.056033711 -17.633 -1.1755646e-16 0.89603341
0.47825694 -0.05 0.056347216 -17.102739 1.1846543e-16 0.84346684
0.47198691 -0.05 0.056651479 -16.586847 2.6887288e-16 0.79252835
0.46571642 -0.05 0.05694625 -16.080028 3.7119873e-16 0.74317549
0.45944548 -0.05 0.057231316 -15.5819 8.9030201e-17 0.69547725
0.45317412 -0.05 0.057506514 -15.092507 3.6172687e-16 0.6494185
0.4469023 -0.05 0.057771661 -14.611385 -6.5540125e-17 0.60487487
0.44063007 -0.05 0.05802653 -14.138001 -8.7717105e-17 0.56176786
0.43435742 -0.05 0.058270881 -13.671484 3.4046404e-16 0.52007139
0.42808436 -0.05 0.058504503 -13.213013 1.4500798e-16 0.47991044
0.4218109 -0.05 0.058727199 -12.767409 -4.4143986e-16 0.44131098
0.41553705 -0.05 0.058938718 -12.337727 -7.9274825e-17 0.40424583
0.40926283 -0.05 0.059138785 -11.925431 -7.4775061e-17 0.3687908
0.40298826 -0.05 0.059327173 -11.531782 -1.2793997e-16 0.33502925
0.39671333 -0.05 0.059503597 -11.153952 1.912405e-18 0.30262949
0.39043806 -0.05 0.059667748 -10.795654 -5.3288484e-17 0.27165546
0.38416248 -0.05 0.059819412 -10.458832 7.5458773e-17 0.24213197
0.37788662 -0.05 0.059958347 -10.142948 -1.8670953e-17 0.21402741
0.37161046 -0.05 0.060084157 -9.8431366 1.0811871e-16 0.18702326
0.36533406 -0.05 0.06019652 -9.5568145 1.8784382e-18 0.16122074
0.35905744 -0.05 0.060295195 -9.2829286 -1.9462544e-17 0.13642495
0.3527806 -0.05 0.060379845 -9.0206426 1.0647128e-16 0.11268398
0.34650358 -0.05 0.060450114 -8.7689715 -1.8562325e-17 0.089743486
0.34022642 -0.05 0.060505615 -8.5273286 -5.1153854e-17 0.067476229
0.33394914 -0.05 0.060546019 -8.2953193 2.691579e-17 0.044579447
0.32767178 -0.05 0.060570935 -8.0727355 -1.1123688e-17 0.022229194
0.32139439 -0.05 0.060579939 -7.8583571 -1.4200433e-18 0.0012839263
0.31511698 -0.05 0.060572643 -7.6520727 7.0032928e-18 -0.0195478
0.30883962 -0.05 0.060548632 -7.4559742 4.2509539e-18 -0.040196528
0.30256235 -0.05 0.060507471 -7.284352 3.6185264e-17 -0.057943442
