# yPlus  FACE_DATA 448
# x y z  yPlus
0.29773273 -0.05 -0.059550111 22.219901
0.29209564 -0.05 -0.059590601 22.608725
0.28653961 -0.05 -0.059615939 22.93929
0.2810635 -0.05 -0.059626347 23.264229
0.27566623 -0.05 -0.059622104 23.583178
0.27034667 -0.05 -0.059603516 23.895556
0.26510375 -0.05 -0.059570869 24.199409
0.25993642 -0.05 -0.059524419 24.496746
0.25484362 -0.05 -0.059464464 24.788357
0.24982431 -0.05 -0.059391261 25.074971
0.24487747 -0.05 -0.059305004 25.354461
0.24000212 -0.05 -0.059205982 25.626712
0.23519725 -0.05 -0.059094448 25.888524
0.23046188 -0.05 -0.058970673 26.136889
0.22579506 -0.05 -0.058834911 26.371924
0.22119584 -0.05 -0.058687345 26.593064
0.21666328 -0.05 -0.058528247 26.801678
0.21219647 -0.05 -0.058357851 27.004045
0.20779448 -0.05 -0.058176297 27.204526
0.20345645 -0.05 -0.05798386 27.40736
0.19918148 -0.05 -0.057780763 27.607643
0.19496871 -0.05 -0.057567246 27.79704
0.19081727 -0.05 -0.057343521 27.96532
0.18672633 -0.05 -0.057109682 28.106331
0.18269506 -0.05 -0.056865988 28.222247
0.17872263 -0.05 -0.056612642 28.334559
0.17480825 -0.05 -0.056349811 28.463548
0.17095111 -0.05 -0.056077712 28.623255
0.16715042 -0.05 -0.055796513 28.798769
0.16340544 -0.05 -0.055506361 28.989848
0.1597154 -0.05 -0.055207393 29.197688
0.15607954 -0.05 -0.054899842 29.431718
0.15249713 -0.05 -0.054583831 29.697683
0.14896745 -0.05 -0.054259506 29.987593
0.14548978 -0.05 -0.053927028 30.289573
0.14206342 -0.05 -0.053586495 30.592567
0.13868768 -0.05 -0.053238072 30.890727
0.13536189 -0.05 -0.052881883 31.18105
0.13208535 -0.05 -0.052518104 31.460997
0.1288574 -0.05 -0.052146851 31.73099
0.12567744 -0.05 -0.051768155 31.988833
0.12254478 -0.05 -0.051382208 32.23506
0.11945879 -0.05 -0.050989134 32.470591
0.11641888 -0.05 -0.050588958 32.694162
0.11342445 -0.05 -0.050181756 32.90587
0.11047488 -0.05 -0.049767667 33.105709
0.1075696 -0.05 -0.04934673 33.294426
0.10470804 -0.05 -0.048919039 33.470457
0.10188959 -0.05 -0.048484758 33.637426
0.09911373 -0.05 -0.048043831 33.794667
0.096379913 -0.05 -0.047596319 33.940491
0.093687592 -0.05 -0.047142368 34.077583
0.091036261 -0.05 -0.046681897 34.205485
0.088425401 -0.05 -0.046214974 34.321743
0.085854501 -0.05 -0.045741671 34.42983
0.083323069 -0.05 -0.045262015 34.527744
0.080830617 -0.05 -0.044776053 34.618695
0.078376695 -0.05 -0.044283681 34.700632
0.075960846 -0.05 -0.043784896 34.772585
0.073582604 -0.05 -0.043279771 34.833305
0.071241524 -0.05 -0.042768328 34.884838
0.068937201 -0.05 -0.042250454 34.925919
0.066669223 -0.05 -0.041726114 34.955651
0.064437179 -0.05 -0.041195305 34.975124
0.062240692 -0.05 -0.040657934 34.984246
0.060079391 -0.05 -0.04011392 34.982154
0.057952914 -0.05 -0.039563203 34.96887
0.055860919 -0.05 -0.03900568 34.944912
0.053803056 -0.05 -0.03844132 34.909459
0.051779034 -0.05 -0.037869933 34.865551
0.049788561 -0.05 -0.03729137 34.807514
0.047831333 -0.05 -0.036705568 34.740168
0.045907097 -0.05 -0.036112341 34.661567
0.044015615 -0.05 -0.035511505 34.573498
0.042156693 -0.05 -0.034902784 34.474661
0.040330132 -0.05 -0.034285987 34.362338
0.038535735 -0.05 -0.033660962 34.237872
0.036773365 -0.05 -0.033027423 34.105215
0.035042922 -0.05 -0.032385066 33.963487
0.033344327 -0.05 -0.031733575 33.810189
0.031677528 -0.05 -0.031072633 33.643932
0.030042519 -0.05 -0.03040189 33.467721
0.028439353 -0.05 -0.029720913 33.279322
0.026868097 -0.05 -0.029029318 33.077996
0.025328901 -0.05 -0.028326622 32.865775
0.023821971 -0.05 -0.027612306 32.640065
0.022347566 -0.05 -0.02688586 32.402081
0.020906068 -0.05 -0.026146654 32.151429
0.019497882 -0.05 -0.025394116 31.884638
0.018123578 -0.05 -0.024627517 31.606595
0.016783814 -0.05 -0.023846097 31.307549
0.015479339 -0.05 -0.023049109 30.992343
0.014211095 -0.05 -0.022235701 30.653953
0.012980201 -0.05 -0.021405008 30.29363
0.011787974 -0.05 -0.020556128 29.903718
0.010635959 -0.05 -0.019688058 29.479277
0.0095258964 -0.05 -0.018799731 29.005314
0.0084598447 -0.05 -0.017890278 28.482475
0.0074402868 -0.05 -0.016958841 27.899915
0.0064699462 -0.05 -0.016004312 27.241104
0.0055518749 -0.05 -0.015025937 26.47515
0.0046898039 -0.05 -0.014023521 25.580074
0.0038876001 -0.05 -0.012996655 24.51929
0.0031493525 -0.05 -0.01194548 23.267428
0.0024798113 -0.05 -0.010871272 21.784159
0.0018835636 -0.05 -0.0097754633 20.016382
0.0013649728 -0.05 -0.0086605144 17.925161
0.00092800152 -0.05 -0.0075304255 15.466289
0.00057576982 -0.05 -0.0063895687 12.51238
0.00031007861 -0.05 -0.0052432331 9.3002445
0.00013106669 -0.05 -0.0040974752 5.9384244
3.7292921e-05 -0.05 -0.0029583741 3.1978504
0.99686381 -0.05 0.0066944102 3.7193626
0.99065951 -0.05 0.005739163 0.40978201
0.98445413 -0.05 0.0047908932 0.66491238
0.97824769 -0.05 0.0038495741 0.42418741
0.97204023 -0.05 0.0029150999 0.44550419
0.96583176 -0.05 0.0019873122 0.19765177
0.95962229 -0.05 0.0010662283 0.36920395
0.95341184 -0.05 0.0001517848 0.32106921
0.94720044 -0.05 -0.00075617281 0.36120182
0.9409881 -0.05 -0.0016577288 0.35916163
0.93477485 -0.05 -0.0025528881 0.37486296
0.92856069 -0.05 -0.0034417107 0.38168222
0.92234562 -0.05 -0.004324273 0.39172571
0.91612967 -0.05 -0.0052006098 0.3999265
0.90991288 -0.05 -0.006070872 0.41027301
0.90369524 -0.05 -0.006935057 0.41799208
0.89747676 -0.05 -0.0077931962 0.4276972
0.89125747 -0.05 -0.0086454254 0.43420258
0.88503737 -0.05 -0.0094917581 0.44113601
0.87881647 -0.05 -0.010332138 0.45021711
0.87259478 -0.05 -0.011166702 0.45904605
0.86637232 -0.05 -0.011995518 0.46802473
0.8601491 -0.05 -0.012818557 0.47733297
0.85392513 -0.05 -0.013635906 0.48864315
0.84770042 -0.05 -0.014447628 0.49888173
0.84147498 -0.05 -0.015253708 0.5074402
0.8352488 -0.05 -0.016054111 0.51719374
0.82902193 -0.05 -0.016849011 0.52507024
0.82279434 -0.05 -0.017638369 0.53497044
0.81656605 -0.05 -0.018422138 0.54391152
0.81033707 -0.05 -0.019200397 0.56372355
0.8041074 -0.05 -0.019973155 0.58764488
0.79787706 -0.05 -0.020740446 0.61795065
0.79164605 -0.05 -0.021502223 0.75945461
0.78541437 -0.05 -0.022258573 0.78346481
0.77918203 -0.05 -0.023009461 0.78074498
0.77294903 -0.05 -0.023754854 0.78428397
0.76671538 -0.05 -0.024494814 0.74098087
0.76048109 -0.05 -0.025229327 0.76393417
0.75424616 -0.05 -0.025958383 0.75110008
0.74801058 -0.05 -0.026681954 0.72550799
0.74177438 -0.05 -0.027400024 0.68466687
0.73553754 -0.05 -0.028112577 0.62154017
0.72930007 -0.05 -0.028819581 0.51960118
0.72306198 -0.05 -0.029521065 0.34513782
0.71682327 -0.05 -0.030217063 0.27757504
0.71058394 -0.05 -0.030907397 0.52584242
0.70434398 -0.05 -0.03159212 0.68200855
0.69810341 -0.05 -0.032271197 0.83036044
0.69186221 -0.05 -0.032944534 0.97474161
0.68562041 -0.05 -0.033612189 1.1204771
0.67937798 -0.05 -0.034274063 1.26655
0.67313496 -0.05 -0.034930165 1.4153764
0.66689131 -0.05 -0.03558038 1.5666433
0.66064704 -0.05 -0.036224607 1.7211774
0.65440217 -0.05 -0.036862933 1.8833718
0.64815669 -0.05 -0.037495268 2.0545961
0.64191058 -0.05 -0.038121448 2.2334074
0.63566387 -0.05 -0.038741441 2.4189005
0.62941653 -0.05 -0.039355248 2.6112792
0.62316859 -0.05 -0.039962731 2.8098204
0.61692003 -0.05 -0.040563807 3.0132354
0.61067085 -0.05 -0.041158471 3.2218764
0.60442104 -0.05 -0.041746579 3.4346508
0.59817062 -0.05 -0.04232806 3.6525139
0.59191958 -0.05 -0.042902829 3.8759087
0.58566791 -0.05 -0.043470795 4.1061552
0.57941562 -0.05 -0.044031844 4.3581994
0.5731627 -0.05 -0.044585829 4.6139689
0.56690917 -0.05 -0.045132719 4.8752722
0.56065499 -0.05 -0.045672391 5.1419599
0.55440019 -0.05 -0.046204684 5.4124649
0.54814476 -0.05 -0.046729526 5.6877428
0.5418887 -0.05 -0.047246754 5.968318
0.53563199 -0.05 -0.04775623 6.2540329
0.52937466 -0.05 -0.048257882 6.5454851
0.52311669 -0.05 -0.048751538 6.8417011
0.51685808 -0.05 -0.049237057 7.14328
0.51059883 -0.05 -0.04971427 7.450941
0.50433896 -0.05 -0.050183041 7.7648884
0.49807844 -0.05 -0.050643244 8.0861447
0.49181728 -0.05 -0.051094683 8.4125736
0.48555548 -0.05 -0.051537154 8.7446617
0.47929305 -0.05 -0.051970532 9.0834538
0.47302999 -0.05 -0.052394681 9.435574
0.46676628 -0.05 -0.052809348 9.8257908
0.46050196 -0.05 -0.053214319 10.260268
0.45423699 -0.05 -0.053609434 10.693405
0.4479714 -0.05 -0.053994506 11.122974
0.44170519 -0.05 -0.054369311 11.552383
0.43543837 -0.05 -0.054733608 11.982533
0.42917092 -0.05 -0.055087186 12.416363
0.42290286 -0.05 -0.055429848 12.854803
0.41663421 -0.05 -0.055761343 13.296858
0.41036497 -0.05 -0.056081393 13.742786
0.40409514 -0.05 -0.056389775 14.194049
0.39782473 -0.05 -0.0566862 14.649543
0.39155376 -0.05 -0.056970363 15.10727
0.38528224 -0.05 -0.057242045 15.568615
0.37901018 -0.05 -0.057501008 16.035454
0.37273758 -0.05 -0.057746853 16.505618
0.36646448 -0.05 -0.057979257 16.977586
0.36019088 -0.05 -0.05819798 17.452935
0.35391681 -0.05 -0.058402686 17.932739
0.34764229 -0.05 -0.058593017 18.415968
0.34136733 -0.05 -0.058768584 18.901163
0.33509197 -0.05 -0.05892906 19.387673
0.32881624 -0.05 -0.059074053 19.87629
0.32254017 -0.05 -0.059203138 20.367787
0.31626378 -0.05 -0.059315924 20.860194
0.3099871 -0.05 -0.059411998 21.355129
0.30371019 -0.05 -0.059490923 21.801849
0.29658484 -0.05 0.060452303 22.978518
0.29094801 -0.05 0.060384953 22.574223
0.28539252 -0.05 0.060304004 22.238248
0.27991721 -0.05 0.060209657 21.91193
0.27452101 -0.05 0.060102169 21.600439
0.26920278 -0.05 0.059981825 21.302043
0.26396145 -0.05 0.059848892 21.017339
0.25879595 -0.05 0.059703602 20.74586
0.25370522 -0.05 0.059546238 20.488093
0.24868823 -0.05 0.059377032 20.243586
0.24374396 -0.05 0.059196163 20.010517
0.23887139 -0.05 0.059003897 19.787685
0.23406952 -0.05 0.058800469 19.573241
0.22933739 -0.05 0.058586133 19.366412
0.22467402 -0.05 0.058361125 19.168763
0.22007847 -0.05 0.058125606 18.9792
0.21554978 -0.05 0.057879833 18.797941
0.21108705 -0.05 0.057624021 18.62538
0.20668935 -0.05 0.057358294 18.459833
0.20235579 -0.05 0.057082909 18.301774
0.19808548 -0.05 0.056798072 18.151215
0.19387757 -0.05 0.056504007 18.00805
0.18973116 -0.05 0.05620091 17.87285
0.18564544 -0.05 0.055888857 17.743891
0.18161957 -0.05 0.055568094 17.621567
0.17765271 -0.05 0.055238804 17.506737
0.17374408 -0.05 0.054901142 17.397629
0.16989285 -0.05 0.054555309 17.295349
0.16609825 -0.05 0.054201457 17.198689
0.1623595 -0.05 0.053839719 17.108146
0.15867585 -0.05 0.053470219 17.022605
0.15504653 -0.05 0.053093173 16.943056
0.15147083 -0.05 0.052708691 16.869272
0.147948 -0.05 0.052316907 16.80037
0.14447732 -0.05 0.051917964 16.737688
0.1410581 -0.05 0.05151195 16.680127
0.13768964 -0.05 0.051099015 16.627973
0.13437127 -0.05 0.050679271 16.581128
0.13110229 -0.05 0.050252881 16.539184
0.12788205 -0.05 0.049819948 16.502251
0.1247099 -0.05 0.049380492 16.467849
0.1215852 -0.05 0.048934689 16.43693
0.11850729 -0.05 0.048482656 16.411075
0.1154756 -0.05 0.048024401 16.388668
0.11248951 -0.05 0.047559993 16.369321
0.1095484 -0.05 0.047089558 16.352377
0.10665171 -0.05 0.046613121 16.336022
0.10379884 -0.05 0.046130769 16.315257
0.10098922 -0.05 0.045642653 16.292129
0.098222297 -0.05 0.045148707 16.272217
0.095497543 -0.05 0.04464898 16.262402
0.092814399 -0.05 0.044143609 16.26573
0.090172361 -0.05 0.043632505 16.278184
0.087570911 -0.05 0.043115725 16.29557
0.085009535 -0.05 0.042593329 16.319958
0.082487742 -0.05 0.042065337 16.346863
0.080005041 -0.05 0.041531785 16.378053
0.077560987 -0.05 0.040992562 16.409215
0.075155121 -0.05 0.040447654 16.440659
0.072786977 -0.05 0.039897128 16.472862
0.07045611 -0.05 0.039340995 16.506198
0.068162115 -0.05 0.038779137 16.538477
0.065904582 -0.05 0.038211509 16.569632
0.0636831 -0.05 0.037638098 16.603583
0.061497294 -0.05 0.037058809 16.642191
0.059346795 -0.05 0.036473551 16.685669
0.057231243 -0.05 0.035882256 16.732529
0.055150296 -0.05 0.035284818 16.780798
0.053103605 -0.05 0.034681195 16.829462
0.051090883 -0.05 0.034071195 16.881148
0.049111842 -0.05 0.033454663 16.932014
0.047166178 -0.05 0.032831526 16.988903
0.045253642 -0.05 0.032201599 17.046928
0.043373999 -0.05 0.03156469 17.104589
0.041527062 -0.05 0.030920522 17.16241
0.039712634 -0.05 0.030268896 17.222141
0.037930521 -0.05 0.02960966 17.291918
0.036180593 -0.05 0.028942525 17.372431
0.034462754 -0.05 0.028267184 17.454273
0.032776933 -0.05 0.027583318 17.536607
0.031123083 -0.05 0.026890614 17.614501
0.029501203 -0.05 0.026188717 17.693295
0.027911356 -0.05 0.025477196 17.777926
0.026353618 -0.05 0.024755672 17.859649
0.024828145 -0.05 0.024023661 17.925094
0.023335155 -0.05 0.02328065 17.988349
0.021874918 -0.05 0.022526132 18.067859
0.020447824 -0.05 0.021759486 18.165109
0.01905429 -0.05 0.020980149 18.237739
0.017694901 -0.05 0.020187401 18.241519
0.016370331 -0.05 0.019380495 18.152784
0.01508134 -0.05 0.018558699 18.018431
0.013828888 -0.05 0.017721179 17.898821
0.01261411 -0.05 0.016867092 17.90242
0.01143834 -0.05 0.015995562 18.08913
0.010303141 -0.05 0.015105613 18.445579
0.0092102746 -0.05 0.014196214 18.975958
0.008161815 -0.05 0.013266534 19.694934
0.0071602613 -0.05 0.012315765 20.610845
0.0062083577 -0.05 0.011342848 21.484145
0.0053091698 -0.05 0.010347091 22.139734
0.0044664319 -0.05 0.009328368 22.563345
0.0036840181 -0.05 0.0082863441 22.70623
0.0029660137 -0.05 0.0072212385 22.528334
0.0023171437 -0.05 0.0061344193 22.018825
0.0017419672 -0.05 0.005027406 21.187864
0.0012447993 -0.05 0.0039027407 19.947052
0.00082952568 -0.05 0.0027644997 18.298327
0.0004991821 -0.05 0.0016171138 16.224543
0.000255468 -0.05 0.0004659054 13.637312
9.8406256e-05 -0.05 -0.00068306716 10.382133
2.6439737e-05 -0.05 -0.0018237536 7.380321
0.99685521 -0.05 0.0075937214 65.317226
0.99063377 -0.05 0.0084301104 66.578377
0.98441138 -0.05 0.0092595028 66.978916
0.97818808 -0.05 0.010081925 66.601632
0.97196387 -0.05 0.010897484 66.374358
0.9657388 -0.05 0.01170634 66.089046
0.95951284 -0.05 0.012508473 65.809835
0.95328603 -0.05 0.013303949 65.519562
0.94705841 -0.05 0.014092921 65.225541
0.94082996 -0.05 0.014875475 64.926532
0.93460072 -0.05 0.015651615 64.62335
0.92837068 -0.05 0.016421403 64.315775
0.92213987 -0.05 0.017184915 64.004039
0.91590831 -0.05 0.017942186 63.687306
0.909676 -0.05 0.018693366 63.366004
0.90344296 -0.05 0.019438454 63.040176
0.89720921 -0.05 0.020177482 62.709113
0.89097476 -0.05 0.020910585 62.374345
0.88473961 -0.05 0.021637778 62.037318
0.87850376 -0.05 0.022359003 61.698281
0.87226725 -0.05 0.023074397 61.357487
0.86603007 -0.05 0.023784032 61.016186
0.85979224 -0.05 0.024487876 60.673715
0.85355378 -0.05 0.025186015 60.330122
0.84731468 -0.05 0.025878515 59.984788
0.84107496 -0.05 0.02656536 59.637258
0.83483461 -0.05 0.027246515 59.286281
0.82859367 -0.05 0.027922155 58.931787
0.82235212 -0.05 0.028592239 58.573066
0.81610998 -0.05 0.029256722 58.209201
0.80986725 -0.05 0.029915683 57.841635
0.80362395 -0.05 0.030569132 57.471781
0.79738006 -0.05 0.031217101 57.101569
0.79113561 -0.05 0.031859544 56.731941
0.7848906 -0.05 0.032496548 56.363811
0.77864504 -0.05 0.033128079 55.997573
0.77239893 -0.05 0.033754103 55.632191
0.76615226 -0.05 0.034374683 55.267997
0.75990507 -0.05 0.034989805 54.903547
0.75365732 -0.05 0.035599459 54.536427
0.74740906 -0.05 0.036203615 54.164432
0.74116025 -0.05 0.03680226 53.786368
0.73491092 -0.05 0.037395377 53.402746
0.72866108 -0.05 0.037982934 53.015947
0.7224107 -0.05 0.038564961 52.629174
0.71615983 -0.05 0.03914149 52.245615
0.70990843 -0.05 0.039712344 51.865336
0.70365651 -0.05 0.040277576 51.488148
0.69740409 -0.05 0.040837152 51.113352
0.69115115 -0.05 0.041390976 50.737823
0.68489772 -0.05 0.041939107 50.358436
0.67864378 -0.05 0.042481447 49.970756
0.67238935 -0.05 0.043018006 49.573707
0.6661344 -0.05 0.043548667 49.170011
0.65987896 -0.05 0.044073329 48.765259
0.65362301 -0.05 0.044592078 48.365195
0.64736658 -0.05 0.045104826 47.971307
0.64110965 -0.05 0.045611408 47.582503
0.6348522 -0.05 0.046111793 47.196504
0.62859427 -0.05 0.046605981 46.808805
0.62233585 -0.05 0.047093836 46.412442
0.61607693 -0.05 0.047575271 46.001999
0.60981752 -0.05 0.048050283 45.57724
0.60355761 -0.05 0.048518731 45.145566
0.59729721 -0.05 0.04898054 44.71724
0.59103632 -0.05 0.049435626 44.295547
0.58477493 -0.05 0.0498839 43.878635
0.57851305 -0.05 0.050325244 43.465258
0.57225068 -0.05 0.050759515 43.049698
0.56598782 -0.05 0.051186679 42.623833
0.55972447 -0.05 0.051606615 42.176372
0.55346063 -0.05 0.052019162 41.702117
0.54719631 -0.05 0.052424246 41.209779
0.54093149 -0.05 0.052821706 40.717403
0.53466619 -0.05 0.053211403 40.230496
0.5284004 -0.05 0.053593266 39.749788
0.52213414 -0.05 0.053967122 39.274912
0.51586738 -0.05 0.054332829 38.803544
0.50960015 -0.05 0.054690221 38.327276
0.50333246 -0.05 0.055039159 37.830802
0.49706428 -0.05 0.05537952 37.299081
0.49079563 -0.05 0.055711104 36.745084
0.48452652 -0.05 0.056033711 36.194495
0.47825694 -0.05 0.056347216 35.646893
0.47198691 -0.05 0.056651479 35.105865
0.46571642 -0.05 0.05694625 34.566315
0.45944548 -0.05 0.057231316 34.027678
0.45317412 -0.05 0.057506514 33.489993
0.4469023 -0.05 0.057771661 32.952746
0.44063007 -0.05 0.05802653 32.415489
0.43435742 -0.05 0.058270881 31.877055
0.42808436 -0.05 0.058504503 31.339048
0.4218109 -0.05 0.058727199 30.807067
0.41553705 -0.05 0.058938718 30.28536
0.40926283 -0.05 0.059138785 29.776028
0.40298826 -0.05 0.059327173 29.281544
0.39671333 -0.05 0.059503597 28.798712
0.39043806 -0.05 0.059667748 28.333476
0.38416248 -0.05 0.059819412 27.888987
0.37788662 -0.05 0.059958347 27.465743
0.37161046 -0.05 0.060084157 27.057551
0.36533406 -0.05 0.06019652 26.662162
0.35905744 -0.05 0.060295195 26.277961
0.3527806 -0.05 0.060379845 25.904919
0.34650358 -0.05 0.060450114 25.541495
0.34022642 -0.05 0.060505615 25.187895
0.33394914 -0.05 0.060546019 24.843478
0.32767178 -0.05 0.060570935 24.508477
0.32139439 -0.05 0.060579939 24.181135
0.31511698 -0.05 0.060572643 23.862108
0.30883962 -0.05 0.060548632 23.55458
0.30256235 -0.05 0.060507471 23.31043
