# p  FACE_DATA 448
# x y z  p
0.29929863 -0.05 -0.058260402 99377.716
0.2936646 -0.05 -0.058450704 99371.196
0.2881112 -0.05 -0.058623705 99364.278
0.28263732 -0.05 -0.058779657 99357.587
0.27724183 -0.05 -0.058918867 99350.941
0.27192366 -0.05 -0.059041672 99344.417
0.26668173 -0.05 -0.059148387 99337.935
0.26151498 -0.05 -0.059239294 99331.601
0.25642239 -0.05 -0.05931472 99325.256
0.25140291 -0.05 -0.05937495 99319.084
0.24645553 -0.05 -0.059420203 99312.989
0.24157927 -0.05 -0.059450796 99306.965
0.23677313 -0.05 -0.059467007 99301.045
0.23203614 -0.05 -0.059469136 99295.173
0.22736736 -0.05 -0.059457461 99289.376
0.22276585 -0.05 -0.059432188 99283.752
0.21823065 -0.05 -0.059393615 99278.122
0.21376089 -0.05 -0.059342001 99272.655
0.20935564 -0.05 -0.059277509 99267.301
0.20501403 -0.05 -0.059200439 99261.995
0.20073517 -0.05 -0.059111038 99256.807
0.19651821 -0.05 -0.059009565 99251.603
0.19236229 -0.05 -0.058896259 99246.532
0.18826657 -0.05 -0.058771235 99241.649
0.18423025 -0.05 -0.058634774 99236.754
0.1802525 -0.05 -0.058487099 99232.049
0.17633251 -0.05 -0.058328399 99227.356
0.1724695 -0.05 -0.058158913 99222.782
0.16866269 -0.05 -0.05797883 99218.244
0.16491132 -0.05 -0.057788317 99213.885
0.16121463 -0.05 -0.057587531 99209.584
0.15757189 -0.05 -0.057376725 99205.308
0.15398234 -0.05 -0.057156041 99201.197
0.15044529 -0.05 -0.056925646 99197.107
0.14696001 -0.05 -0.056685716 99193.17
0.14352581 -0.05 -0.056436371 99189.351
0.140142 -0.05 -0.056177795 99185.649
0.13680791 -0.05 -0.055910127 99182.084
0.13352286 -0.05 -0.055633562 99178.506
0.1302862 -0.05 -0.055348233 99175.105
0.12709728 -0.05 -0.055054192 99171.836
0.12395547 -0.05 -0.054751642 99168.512
0.12086013 -0.05 -0.054440729 99165.319
0.11781066 -0.05 -0.05412149 99162.29
0.11480646 -0.05 -0.05379402 99159.396
0.11184693 -0.05 -0.053458473 99156.563
0.1089315 -0.05 -0.053114902 99154.018
0.10605956 -0.05 -0.05276342 99151.46
0.10323057 -0.05 -0.052404203 99148.973
0.10044397 -0.05 -0.052037211 99146.756
0.097699228 -0.05 -0.051662518 99144.533
0.094995793 -0.05 -0.051280284 99142.393
0.09233316 -0.05 -0.050890445 99140.579
0.089710812 -0.05 -0.050493081 99138.77
0.087128241 -0.05 -0.050088275 99137.27
0.084584955 -0.05 -0.049676072 99135.749
0.082080466 -0.05 -0.049256527 99134.466
0.079614325 -0.05 -0.048829551 99133.428
0.077186073 -0.05 -0.048395152 99132.561
0.074795245 -0.05 -0.047953415 99131.711
0.072441399 -0.05 -0.047504375 99131.074
0.070124126 -0.05 -0.047047931 99130.84
0.067843013 -0.05 -0.046584056 99130.855
0.065597649 -0.05 -0.046112758 99131.13
0.063387655 -0.05 -0.045633958 99131.634
0.061212659 -0.05 -0.045147581 99132.276
0.059072296 -0.05 -0.044653577 99133.155
0.056966222 -0.05 -0.044151853 99134.388
0.054894087 -0.05 -0.043642387 99135.925
0.052855592 -0.05 -0.043124998 99138.257
0.050850445 -0.05 -0.042599545 99140.904
0.048878338 -0.05 -0.042065968 99143.902
0.046939014 -0.05 -0.041524095 99147.053
0.045032231 -0.05 -0.040973745 99150.697
0.043157788 -0.05 -0.040414647 99155.237
0.041315478 -0.05 -0.039846615 99160.569
0.039505102 -0.05 -0.039269503 99166.641
0.037726516 -0.05 -0.03868303 99173.432
0.035979611 -0.05 -0.038086892 99180.566
0.034264301 -0.05 -0.037480777 99188.377
0.032580525 -0.05 -0.036864371 99197.503
0.030928265 -0.05 -0.036237321 99208.108
0.029307566 -0.05 -0.035599193 99220.289
0.027718484 -0.05 -0.034949606 99233.653
0.026161154 -0.05 -0.034288068 99248.231
0.024635771 -0.05 -0.033614057 99264.993
0.02314258 -0.05 -0.032927055 99283.945
0.021681944 -0.05 -0.032226423 99305.551
0.020254253 -0.05 -0.031511578 99329.199
0.018860059 -0.05 -0.030781777 99355.171
0.0175 -0.05 -0.030036243 99383.173
0.016174803 -0.05 -0.029274207 99415.087
0.014885387 -0.05 -0.028494794 99451.339
0.01363285 -0.05 -0.02769711 99493.146
0.012418483 -0.05 -0.026880219 99541.009
0.011243803 -0.05 -0.026043073 99596.338
0.010110521 -0.05 -0.025184564 99660.224
0.0090206739 -0.05 -0.024303766 99733.072
0.0079767199 -0.05 -0.023399757 99814.481
0.0069813521 -0.05 -0.022471355 99904.153
0.0060376012 -0.05 -0.021517728 100001.95
0.0051491919 -0.05 -0.020538579 100113.87
0.0043199788 -0.05 -0.019533397 100235.85
0.0035540531 -0.05 -0.018502214 100369.89
0.0028561975 -0.05 -0.017446181 100513.96
0.0022310355 -0.05 -0.016366608 100665.79
0.0016829939 -0.05 -0.015265836 100821.26
0.0012161408 -0.05 -0.01414776 100975.39
0.0008337111 -0.05 -0.013016669 101122.76
0.00053764569 -0.05 -0.011877799 101257.82
0.00032824432 -0.05 -0.010737204 101372.6
0.00020422792 -0.05 -0.0096009979 101463.31
0.99642203 -0.05 0.02654267 100314.44
0.99024532 -0.05 0.025422858 100280.47
0.98406733 -0.05 0.024309993 100248.48
0.97788811 -0.05 0.023204048 100226.34
0.97170767 -0.05 0.022104918 100205.78
0.96552605 -0.05 0.021012446 100187.35
0.95934326 -0.05 0.019926647 100170.29
0.95315931 -0.05 0.018847462 100154.28
0.94697424 -0.05 0.017774735 100139.28
0.94078806 -0.05 0.016708382 100124.98
0.93460079 -0.05 0.015648399 100111.56
0.92841244 -0.05 0.014594726 100098.67
0.92222303 -0.05 0.013547287 100086.53
0.91603258 -0.05 0.012506049 100074.82
0.90984111 -0.05 0.01147086 100063.58
0.90364863 -0.05 0.010441724 100052.81
0.89745516 -0.05 0.0094186092 100042.59
0.89126072 -0.05 0.0084013808 100032.57
0.88506531 -0.05 0.0073900253 100022.95
0.87886893 -0.05 0.0063845993 100013.66
0.87267163 -0.05 0.0053849663 100004.63
0.8664734 -0.05 0.0043910587 99995.834
0.86027425 -0.05 0.0034029052 99987.296
0.8540742 -0.05 0.0024204198 99978.938
0.84787327 -0.05 0.0014435405 99970.829
0.84167145 -0.05 0.00047228111 99962.904
0.83546875 -0.05 -0.00049332207 99955.246
0.82926519 -0.05 -0.0014534435 99947.537
0.82306079 -0.05 -0.0024080431 99940.177
0.81685554 -0.05 -0.0033570743 99932.816
0.81064944 -0.05 -0.0043006162 99925.655
0.80444251 -0.05 -0.0052386782 99918.516
0.79823476 -0.05 -0.0061712917 99911.586
0.79202619 -0.05 -0.0070984113 99904.722
0.78581682 -0.05 -0.0080201234 99897.881
0.77960665 -0.05 -0.0089363926 99891.179
0.77339566 -0.05 -0.0098471876 99884.546
0.76718388 -0.05 -0.010752568 99877.997
0.76097131 -0.05 -0.011652521 99871.526
0.75475796 -0.05 -0.012547036 99865.114
0.74854383 -0.05 -0.013436084 99858.813
0.74232891 -0.05 -0.014319649 99852.499
0.73611321 -0.05 -0.015197718 99846.237
0.72989673 -0.05 -0.016070255 99840.031
0.72367949 -0.05 -0.016937293 99833.811
0.71746148 -0.05 -0.01779886 99827.538
0.7112427 -0.05 -0.018654784 99821.437
0.70502315 -0.05 -0.019505114 99815.176
0.69880283 -0.05 -0.020349817 99809.13
0.69258173 -0.05 -0.021188798 99803.017
0.68635988 -0.05 -0.022022116 99796.959
0.68013725 -0.05 -0.022849671 99790.918
0.67391387 -0.05 -0.023671472 99784.853
0.66768971 -0.05 -0.024487406 99778.886
0.66146478 -0.05 -0.02529737 99772.916
0.65523907 -0.05 -0.02610145 99766.821
0.6490126 -0.05 -0.026899558 99760.776
0.64278535 -0.05 -0.027691531 99754.728
0.63655732 -0.05 -0.028477333 99748.66
0.63032851 -0.05 -0.029256969 99742.516
0.62409892 -0.05 -0.0300303 99736.467
0.61786853 -0.05 -0.030797241 99730.343
0.61163736 -0.05 -0.031557789 99724.172
0.6054054 -0.05 -0.032311802 99718.012
0.59917265 -0.05 -0.033059204 99711.797
0.59293909 -0.05 -0.033799915 99705.582
0.58670472 -0.05 -0.034533842 99699.305
0.58046955 -0.05 -0.035260869 99693.055
0.57423357 -0.05 -0.035980853 99686.787
0.56799677 -0.05 -0.036693761 99680.443
0.56175915 -0.05 -0.037399469 99674.08
0.55552071 -0.05 -0.038097818 99667.658
0.54928144 -0.05 -0.038788735 99661.196
0.54304133 -0.05 -0.039472059 99654.799
0.53680039 -0.05 -0.040147649 99648.367
0.5305586 -0.05 -0.040815435 99641.819
0.52431595 -0.05 -0.041475245 99635.231
0.51807246 -0.05 -0.042126938 99628.617
0.51182811 -0.05 -0.042770345 99622.008
0.5055829 -0.05 -0.043405329 99615.33
0.49933683 -0.05 -0.044031766 99608.622
0.49308988 -0.05 -0.044649458 99601.892
0.48684205 -0.05 -0.045258203 99595.186
0.48059335 -0.05 -0.045857875 99588.389
0.47434377 -0.05 -0.046448338 99581.555
0.46809331 -0.05 -0.047029339 99574.715
0.46184195 -0.05 -0.047600665 99567.865
0.45558971 -0.05 -0.048162153 99560.962
0.44933656 -0.05 -0.048713621 99554.012
0.44308253 -0.05 -0.049254841 99547.014
0.4368276 -0.05 -0.049785572 99540.004
0.43057177 -0.05 -0.050305607 99532.95
0.42431503 -0.05 -0.050814743 99525.847
0.4180574 -0.05 -0.051312733 99518.718
0.41179888 -0.05 -0.051799299 99511.568
0.40553947 -0.05 -0.052274214 99504.339
0.39927916 -0.05 -0.052737194 99497.132
0.39301794 -0.05 -0.05318793 99489.921
0.38675586 -0.05 -0.053626205 99482.644
0.3804929 -0.05 -0.054051779 99475.288
0.37422904 -0.05 -0.054464253 99468.004
0.36796434 -0.05 -0.054863307 99460.654
0.36169877 -0.05 -0.055248697 99453.281
0.35543236 -0.05 -0.055620086 99445.855
0.34916512 -0.05 -0.055977118 99438.402
0.34289705 -0.05 -0.056319404 99430.912
0.33662817 -0.05 -0.056646613 99423.338
0.33035851 -0.05 -0.056958355 99415.814
0.32408808 -0.05 -0.057254204 99408.311
0.3178169 -0.05 -0.057533768 99400.637
0.311545 -0.05 -0.057796633 99392.585
0.30527241 -0.05 -0.058042363 99385.513
0.29496165 -0.05 0.061669109 99559.724
0.28932859 -0.05 0.061451962 99555.516
0.28377721 -0.05 0.061223384 99552.393
0.27830636 -0.05 0.060983545 99549.296
0.27291491 -0.05 0.060732672 99546.278
0.26760176 -0.05 0.060471019 99543.413
0.26236581 -0.05 0.060198825 99540.65
0.257206 -0.05 0.059916295 99538.104
0.25212125 -0.05 0.059623681 99535.563
0.24711053 -0.05 0.059321191 99533.252
0.24217281 -0.05 0.059008973 99531.055
0.23730707 -0.05 0.058687269 99528.999
0.23251232 -0.05 0.058356287 99527.045
0.22778755 -0.05 0.058016253 99525.205
0.22313181 -0.05 0.057667377 99523.493
0.21854414 -0.05 0.057309798 99522.014
0.21402359 -0.05 0.056943746 99520.556
0.20956923 -0.05 0.056569411 99519.306
0.20518014 -0.05 0.056186893 99518.21
0.20085543 -0.05 0.055796425 99517.199
0.19659421 -0.05 0.05539819 99516.375
0.19239559 -0.05 0.054992388 99515.591
0.18825871 -0.05 0.054579191 99514.989
0.18418273 -0.05 0.054158656 99514.633
0.1801668 -0.05 0.053731004 99514.305
0.1762101 -0.05 0.053296397 99514.27
0.17231182 -0.05 0.052854968 99514.3
0.16847114 -0.05 0.052406896 99514.495
0.16468728 -0.05 0.051952314 99514.772
0.16095948 -0.05 0.051491333 99515.326
0.15728695 -0.05 0.051024057 99516.004
0.15366893 -0.05 0.050550683 99516.76
0.15010471 -0.05 0.050071299 99517.791
0.14659354 -0.05 0.049586021 99518.918
0.1431347 -0.05 0.049094973 99520.248
0.13972748 -0.05 0.048598224 99521.768
0.13637118 -0.05 0.048095907 99523.476
0.13306514 -0.05 0.047588114 99525.415
0.12980864 -0.05 0.047074989 99527.324
0.12660104 -0.05 0.046556619 99529.52
0.12344169 -0.05 0.046033006 99532.008
0.12032994 -0.05 0.045504311 99534.494
0.11726515 -0.05 0.044970631 99537.266
0.1142467 -0.05 0.044431959 99540.294
0.111274 -0.05 0.043888349 99543.554
0.10834644 -0.05 0.04333991 99546.963
0.10546344 -0.05 0.042786651 99550.778
0.1026244 -0.05 0.042228644 99554.591
0.099828737 -0.05 0.041666024 99558.523
0.097075926 -0.05 0.041098712 99562.909
0.094365415 -0.05 0.040526742 99567.385
0.09169665 -0.05 0.039950235 99572.045
0.089069131 -0.05 0.039369089 99577.249
0.086482335 -0.05 0.038783349 99582.546
0.08393575 -0.05 0.038193059 99588.318
0.08142888 -0.05 0.037598228 99594.16
0.078961238 -0.05 0.036998878 99600.39
0.076532379 -0.05 0.036394886 99607.11
0.074141846 -0.05 0.035786226 99614.232
0.071789171 -0.05 0.035172952 99621.515
0.069473908 -0.05 0.034555064 99629.127
0.067195657 -0.05 0.033932434 99637.313
0.064954007 -0.05 0.033305004 99645.921
0.062748551 -0.05 0.032672752 99654.944
0.060578914 -0.05 0.032035571 99664.495
0.058444731 -0.05 0.031393363 99674.568
0.056345641 -0.05 0.030746049 99685.178
0.054281308 -0.05 0.030093512 99696.343
0.052251385 -0.05 0.029435705 99707.869
0.050255587 -0.05 0.028772425 99720.361
0.048293631 -0.05 0.02810351 99733.336
0.046365217 -0.05 0.027428881 99747.037
0.044470098 -0.05 0.026748343 99761.365
0.042608047 -0.05 0.026061701 99776.581
0.040778885 -0.05 0.025368672 99792.847
0.038982418 -0.05 0.02466905 99809.985
0.037218455 -0.05 0.023962681 99827.996
0.035486877 -0.05 0.023249271 99847.181
0.033787594 -0.05 0.022528511 99867.421
0.032120545 -0.05 0.02180008 99888.849
0.03048569 -0.05 0.021063663 99912.04
0.028883039 -0.05 0.020318906 99936.682
0.027312665 -0.05 0.019565381 99962.62
0.025774655 -0.05 0.01880271 99990.304
0.024269176 -0.05 0.018030412 100020.02
0.022796462 -0.05 0.017247982 100051.77
0.021356794 -0.05 0.016454919 100085.76
0.019950581 -0.05 0.015650615 100122.22
0.018578253 -0.05 0.014834514 100160.99
0.017240415 -0.05 0.014005916 100202.8
0.015937758 -0.05 0.01316409 100247.65
0.014671066 -0.05 0.012308324 100296.28
0.013441316 -0.05 0.011437812 100348.86
0.012249668 -0.05 0.01055174 100405.87
0.011097477 -0.05 0.0096492668 100466.82
0.0099863332 -0.05 0.00872946 100532.34
0.0089180234 -0.05 0.0077913354 100602.83
0.0078946438 -0.05 0.0068341177 100678.66
0.0069187141 -0.05 0.0058570638 100759.49
0.0059930056 -0.05 0.0048591907 100845.49
0.0051206013 -0.05 0.003839886 100935.77
0.0043052374 -0.05 0.0027991241 101029.74
0.0035507956 -0.05 0.0017366727 101125.98
0.0028613538 -0.05 0.0006528599 101222.34
0.0022415992 -0.05 -0.0004508215 101315.75
0.0016960489 -0.05 -0.0015727311 101401.22
0.0012289486 -0.05 -0.0027102131 101474.16
0.0008440746 -0.05 -0.0038590895 101532.73
0.00054434368 -0.05 -0.0050148501 101570.39
0.00033131323 -0.05 -0.0061721294 101583.1
0.00020484511 -0.05 -0.0073248705 101570.31
0.00016322191 -0.05 -0.0084670668 101530.05
0.99638953 -0.05 0.027441435 100187.53
0.99014806 -0.05 0.028112171 100211.32
0.98390583 -0.05 0.028775888 100189.04
0.97766287 -0.05 0.029432613 100182.53
0.97141918 -0.05 0.030082454 100169.86
0.9651748 -0.05 0.030725569 100159.14
0.95892973 -0.05 0.031361941 100147.8
0.95268398 -0.05 0.031991635 100136.81
0.94643758 -0.05 0.032614806 100125.94
0.94019053 -0.05 0.033231541 100115.3
0.93394286 -0.05 0.033841842 100104.91
0.92769457 -0.05 0.034445773 100094.81
0.92144567 -0.05 0.035043408 100084.93
0.91519618 -0.05 0.035634784 100075.32
0.90894611 -0.05 0.036220054 100065.93
0.90269547 -0.05 0.036799213 100056.85
0.89644428 -0.05 0.037372295 100047.98
0.89019254 -0.05 0.037939436 100039.35
0.88394027 -0.05 0.038500649 100030.95
0.87768745 -0.05 0.039055879 100022.81
0.87143413 -0.05 0.039605264 100014.85
0.8651803 -0.05 0.040148872 100007.11
0.85892597 -0.05 0.040686673 99999.56
0.85267115 -0.05 0.041218757 99992.2
0.84641585 -0.05 0.041745185 99985
0.84016008 -0.05 0.042265944 99977.979
0.83390383 -0.05 0.042780998 99971.129
0.82764713 -0.05 0.043290523 99964.382
0.82138998 -0.05 0.043794479 99957.83
0.81513238 -0.05 0.04429282 99951.37
0.80887434 -0.05 0.044785626 99945.074
0.80261587 -0.05 0.045272905 99938.869
0.79635698 -0.05 0.04575469 99932.803
0.79009765 -0.05 0.046230937 99926.844
0.78383793 -0.05 0.046701733 99920.964
0.77757779 -0.05 0.047167042 99915.206
0.77131724 -0.05 0.047626833 99909.524
0.7650563 -0.05 0.048081166 99903.933
0.75879494 -0.05 0.048530028 99898.421
0.75253321 -0.05 0.048973409 99892.979
0.74627109 -0.05 0.049411282 99887.615
0.74000858 -0.05 0.04984363 99882.31
0.7337457 -0.05 0.05027044 99877.077
0.72748244 -0.05 0.050691676 99871.915
0.72121881 -0.05 0.051107371 99866.788
0.71495481 -0.05 0.051517556 99861.696
0.70869045 -0.05 0.051922056 99856.711
0.70242572 -0.05 0.05232092 99851.685
0.69616063 -0.05 0.052714117 99846.787
0.68989519 -0.05 0.053101552 99841.872
0.68362939 -0.05 0.053483282 99837.019
0.67736325 -0.05 0.053859209 99832.189
0.67109676 -0.05 0.054229343 99827.364
0.66482993 -0.05 0.054593568 99822.613
0.65856275 -0.05 0.054951783 99817.879
0.65229523 -0.05 0.055304075 99813.109
0.64602737 -0.05 0.055650355 99808.398
0.63975919 -0.05 0.055990458 99803.734
0.63349065 -0.05 0.056324351 99799.109
0.62722181 -0.05 0.056652037 99794.476
0.62095263 -0.05 0.056973379 99789.901
0.61468313 -0.05 0.05728829 99785.304
0.60841329 -0.05 0.057596769 99780.716
0.60214314 -0.05 0.057898671 99776.145
0.59587269 -0.05 0.058193924 99771.557
0.58960191 -0.05 0.058482443 99766.999
0.58333082 -0.05 0.05876414 99762.411
0.57705941 -0.05 0.059038896 99757.855
0.57078772 -0.05 0.059306568 99753.309
0.56451572 -0.05 0.059567123 99748.745
0.55824343 -0.05 0.05982044 99744.21
0.55197083 -0.05 0.060066356 99739.664
0.54569795 -0.05 0.0603048 99735.087
0.53942478 -0.05 0.060535609 99730.558
0.53315134 -0.05 0.060758645 99726.012
0.52687762 -0.05 0.060973837 99721.453
0.52060363 -0.05 0.061181012 99716.908
0.51432937 -0.05 0.061380029 99712.353
0.50805485 -0.05 0.06157072 99707.831
0.50178009 -0.05 0.061752947 99703.251
0.49550509 -0.05 0.061926588 99698.679
0.48922984 -0.05 0.062091444 99694.111
0.48295437 -0.05 0.062247312 99689.584
0.47667867 -0.05 0.062394069 99685.005
0.47040277 -0.05 0.062531576 99680.441
0.46412666 -0.05 0.062659582 99675.89
0.45785037 -0.05 0.062777875 99671.339
0.45157389 -0.05 0.06288629 99666.765
0.44529725 -0.05 0.062984647 99662.207
0.43902046 -0.05 0.063072718 99657.647
0.43274354 -0.05 0.063150264 99653.124
0.42646648 -0.05 0.063217075 99648.594
0.42018932 -0.05 0.063272952 99644.049
0.41391207 -0.05 0.063317647 99639.522
0.40763474 -0.05 0.063350883 99635.018
0.40135737 -0.05 0.063372434 99630.475
0.39507997 -0.05 0.063382016 99626.01
0.38880256 -0.05 0.063379322 99621.579
0.38252517 -0.05 0.063364136 99617.124
0.37624783 -0.05 0.063336218 99612.63
0.36997055 -0.05 0.063295172 99608.272
0.36369337 -0.05 0.063240677 99603.913
0.35741634 -0.05 0.063172493 99599.596
0.35113948 -0.05 0.063090283 99595.279
0.34486281 -0.05 0.062993693 99590.996
0.33858638 -0.05 0.062882335 99586.768
0.33231025 -0.05 0.062755883 99582.547
0.32603445 -0.05 0.062613948 99578.399
0.31975903 -0.05 0.062456104 99574.387
0.31348404 -0.05 0.062281966 99570.599
0.30720954 -0.05 0.062091118 99566.6
0.30093558 -0.05 0.061883131 99561.466
