# wallShearStress  FACE_DATA 448
# x y z  wallShearStress_x wallShearStress_y wallShearStress_z
0.29929863 -0.05 -0.058260402 -7.161288 2.1806031e-16 -0.25025568
0.2936646 -0.05 -0.058450704 -7.154973 -2.3203633e-16 -0.23065609
0.2881112 -0.05 -0.058623705 -7.0986064 7.9340674e-17 -0.21019757
0.28263732 -0.05 -0.058779657 -7.0478082 -2.1217697e-16 -0.18985525
0.27724183 -0.05 -0.058918867 -6.9988821 9.6747295e-17 -0.16972856
0.27192366 -0.05 -0.059041672 -6.9527616 1.1975552e-16 -0.14969801
0.26668173 -0.05 -0.059148387 -6.9091047 2.1196814e-16 -0.12982876
0.26151498 -0.05 -0.059239294 -6.8679124 5.6711886e-17 -0.11005297
0.25642239 -0.05 -0.05931472 -6.8291344 -2.6485225e-17 -0.090700742
0.25140291 -0.05 -0.05937495 -6.792839 -9.0265962e-17 -0.07183499
0.24645553 -0.05 -0.059420203 -6.7581959 -1.7020525e-19 -0.052469137
0.24157927 -0.05 -0.059450796 -6.7255599 1.3468526e-17 -0.031389322
0.23677313 -0.05 -0.059467007 -6.6944983 5.6628426e-18 -0.011561013
0.23203614 -0.05 -0.059469136 -6.664494 3.140017e-18 0.0086787796
0.22736736 -0.05 -0.059457461 -6.6366192 -2.2214982e-17 0.0293708
0.22276585 -0.05 -0.059432188 -6.6106747 1.9741357e-17 0.04860439
0.21823065 -0.05 -0.059393615 -6.5866946 2.4783791e-17 0.067613637
0.21376089 -0.05 -0.059342001 -6.5650213 3.3249212e-17 0.087111557
0.20935564 -0.05 -0.059277509 -6.5447574 -2.8282629e-17 0.10719349
0.20501403 -0.05 -0.059200439 -6.5264737 -2.6615154e-17 0.12732752
0.20073517 -0.05 -0.059111038 -6.5103016 -8.4552976e-18 0.1476394
0.19651821 -0.05 -0.059009565 -6.4962529 8.1382594e-17 0.16805656
0.19236229 -0.05 -0.058896259 -6.4845386 -2.6212227e-17 0.18884802
0.18826657 -0.05 -0.058771235 -6.4741209 -7.3055832e-17 0.20982071
0.18423025 -0.05 -0.058634774 -6.4653041 -5.5210266e-17 0.23088347
0.1802525 -0.05 -0.058487099 -6.4584841 -1.6254729e-16 0.25235322
0.17633251 -0.05 -0.058328399 -6.4529522 -3.2105132e-17 0.2739385
0.1724695 -0.05 -0.058158913 -6.4494098 -8.1068646e-17 0.29592271
0.16866269 -0.05 -0.05797883 -6.4473852 8.958809e-17 0.31819831
0.16491132 -0.05 -0.057788317 -6.4469591 1.2680192e-16 0.34092825
0.16121463 -0.05 -0.057587531 -6.4477819 -1.348807e-16 0.3638877
0.15757189 -0.05 -0.057376725 -6.4507159 1.3254059e-17 0.38729196
0.15398234 -0.05 -0.057156041 -6.4555059 1.6948827e-16 0.41123344
0.15044529 -0.05 -0.056925646 -6.461822 6.1801872e-17 0.43552399
0.14696001 -0.05 -0.056685716 -6.4700144 1.7175924e-16 0.46046385
0.14352581 -0.05 -0.056436371 -6.479426 -2.6162851e-16 0.48586399
0.140142 -0.05 -0.056177795 -6.4902612 4.5331054e-18 0.51181926
0.13680791 -0.05 -0.055910127 -6.5024767 1.8595209e-16 0.53828853
0.13352286 -0.05 -0.055633562 -6.5162679 1.3273965e-16 0.56531555
0.1302862 -0.05 -0.055348233 -6.5317615 -2.0701537e-16 0.59318704
0.12709728 -0.05 -0.055054192 -6.547859 -1.5439766e-16 0.62150815
0.12395547 -0.05 -0.054751642 -6.5655423 9.6031786e-17 0.65049003
0.12086013 -0.05 -0.054440729 -6.5852525 -1.619463e-16 0.68051342
0.11781066 -0.05 -0.05412149 -6.6058683 -1.2962129e-16 0.71129245
0.11480646 -0.05 -0.05379402 -6.6275075 -4.7669479e-16 0.74280564
0.11184693 -0.05 -0.053458473 -6.6505981 -1.3011548e-16 0.77525028
0.1089315 -0.05 -0.053114902 -6.6748787 1.2569684e-16 0.80858824
0.10605956 -0.05 -0.05276342 -6.700074 -1.7052514e-16 0.84258143
0.10323057 -0.05 -0.052404203 -6.7277826 -7.4592385e-16 0.8780419
0.10044397 -0.05 -0.052037211 -6.7568248 7.5056239e-17 0.9146026
0.097699228 -0.05 -0.051662518 -6.7868007 2.7750915e-16 0.95197354
0.094995793 -0.05 -0.051280284 -6.8188403 4.9044316e-16 0.99094344
0.09233316 -0.05 -0.050890445 -6.8512683 -5.4244741e-16 1.0310239
0.089710812 -0.05 -0.050493081 -6.8832863 1.7441633e-16 1.0719141
0.087128241 -0.05 -0.050088275 -6.916116 -8.9491167e-16 1.1142045
0.084584955 -0.05 -0.049676072 -6.9490673 -2.3410905e-16 1.1576482
0.082080466 -0.05 -0.049256527 -6.9838486 -3.6186817e-16 1.2031229
0.079614325 -0.05 -0.048829551 -7.0190253 5.2403986e-16 1.249996
0.077186073 -0.05 -0.048395152 -7.0551924 1.2303064e-16 1.2983111
0.074795245 -0.05 -0.047953415 -7.0933603 4.3767861e-16 1.3486074
0.072441399 -0.05 -0.047504375 -7.134046 1.9480938e-17 1.4014288
0.070124126 -0.05 -0.047047931 -7.1754397 1.3285301e-16 1.4560803
0.067843013 -0.05 -0.046584056 -7.2166369 -8.7439734e-16 1.5123028
0.065597649 -0.05 -0.046112758 -7.2584212 -3.2973238e-16 1.5706467
0.063387655 -0.05 -0.045633958 -7.3001132 3.3533299e-16 1.6310986
0.061212659 -0.05 -0.045147581 -7.3416399 1.7869828e-17 1.6939124
0.059072296 -0.05 -0.044653577 -7.3835111 -8.5905049e-17 1.7594406
0.056966222 -0.05 -0.044151853 -7.4253686 1.3036618e-16 1.8275604
0.054894087 -0.05 -0.043642387 -7.4667466 5.4319635e-16 1.898645
0.052855592 -0.05 -0.043124998 -7.5079322 -9.9264445e-16 1.9725654
0.050850445 -0.05 -0.042599545 -7.5474592 3.5660812e-16 2.0485471
0.048878338 -0.05 -0.042065968 -7.5882738 -6.4448121e-17 2.1286145
0.046939014 -0.05 -0.041524095 -7.6311033 -5.7004572e-16 2.2135846
0.045032231 -0.05 -0.040973745 -7.676956 1.3631131e-16 2.3043247
0.043157788 -0.05 -0.040414647 -7.7227599 -3.3897587e-16 2.3990061
0.041315478 -0.05 -0.039846615 -7.7658171 1.1731424e-16 2.4968424
0.039505102 -0.05 -0.039269503 -7.8061224 6.3236594e-17 2.5986742
0.037726516 -0.05 -0.03868303 -7.8426869 -3.4458525e-16 2.7049289
0.035979611 -0.05 -0.038086892 -7.8765188 -3.8251256e-16 2.8176167
0.034264301 -0.05 -0.037480777 -7.9100747 6.0016995e-16 2.9385541
0.032580525 -0.05 -0.036864371 -7.9403808 -7.1899183e-16 3.0653493
0.030928265 -0.05 -0.036237321 -7.9641878 1.0185427e-15 3.1977987
0.029307566 -0.05 -0.035599193 -7.9845677 -1.1269415e-15 3.3357713
0.027718484 -0.05 -0.034949606 -8.003821 3.9705182e-16 3.4813413
0.026161154 -0.05 -0.034288068 -8.0271663 -7.1287941e-16 3.6392236
0.024635771 -0.05 -0.033614057 -8.0487216 1.4977601e-16 3.806956
0.02314258 -0.05 -0.032927055 -8.0484059 -5.5568863e-16 3.9783998
0.021681944 -0.05 -0.032226423 -8.0151322 8.2935256e-16 4.1512951
0.020254253 -0.05 -0.031511578 -7.9310364 -1.4699425e-16 4.327813
0.018860059 -0.05 -0.030781777 -7.7927969 -3.2542197e-16 4.5160798
0.0175 -0.05 -0.030036243 -7.6156258 9.3313805e-16 4.7295149
0.016174803 -0.05 -0.029274207 -7.4333877 5.699182e-16 4.978123
0.014885387 -0.05 -0.028494794 -7.2301652 -7.7819668e-17 5.259042
0.01363285 -0.05 -0.02769711 -7.0312682 -9.9119145e-17 5.5998239
0.012418483 -0.05 -0.026880219 -6.8415694 -2.2078613e-16 6.0112421
0.011243803 -0.05 -0.026043073 -6.6655274 -1.2664937e-16 6.4899699
0.010110521 -0.05 -0.025184564 -6.5224013 -3.4758672e-16 7.0097973
0.0090206739 -0.05 -0.024303766 -6.4653993 -7.6386016e-16 7.5696784
0.0079767199 -0.05 -0.023399757 -6.4386469 1.6698873e-16 8.1321728
0.0069813521 -0.05 -0.022471355 -6.35699 -1.9437885e-16 8.6327382
0.0060376012 -0.05 -0.021517728 -6.1590545 1.0495391e-16 9.0326281
0.0051491919 -0.05 -0.020538579 -5.809634 -1.3032322e-16 9.2988202
0.0043199788 -0.05 -0.019533397 -5.3047405 2.9833333e-16 9.3789934
0.0035540531 -0.05 -0.018502214 -4.6863382 -2.6206004e-16 9.2788541
0.0028561975 -0.05 -0.017446181 -3.9870195 -3.1051518e-16 8.9673965
0.0022310355 -0.05 -0.016366608 -3.2501068 -1.7463663e-16 8.4540915
0.0016829939 -0.05 -0.015265836 -2.5112006 -3.6927246e-16 7.7223506
0.0012161408 -0.05 -0.01414776 -1.8103463 3.4091092e-17 6.8064469
0.0008337111 -0.05 -0.013016669 -1.1910528 -1.6311169e-16 5.7517069
0.00053764569 -0.05 -0.011877799 -0.72852738 3.8723757e-16 4.6163434
0.00032824432 -0.05 -0.010737204 -0.41233777 8.331296e-17 3.4456597
0.00020422792 -0.05 -0.0096009979 -0.22725858 -3.9837561e-17 2.3072187
0.99642203 -0.05 0.02654267 -24.627325 9.0620789e-17 -4.2012082
0.99024532 -0.05 0.025422858 -22.978842 -1.4969142e-15 -4.0981125
0.98406733 -0.05 0.024309993 -23.10876 -1.9824995e-15 -4.1324471
0.97788811 -0.05 0.023204048 -23.465919 -1.4162854e-15 -4.168161
0.97170767 -0.05 0.022104918 -23.703169 1.0151673e-15 -4.1858899
0.96552605 -0.05 0.021012446 -23.909072 1.4023294e-15 -4.1972298
0.95934326 -0.05 0.019926647 -24.071353 7.2665921e-16 -4.2002837
0.95315931 -0.05 0.018847462 -24.202639 1.0809847e-15 -4.1980137
0.94697424 -0.05 0.017774735 -24.308585 -9.4310483e-17 -4.1909025
0.94078806 -0.05 0.016708382 -24.393007 3.0144935e-16 -4.1801971
0.93460079 -0.05 0.015648399 -24.459418 -9.5594712e-16 -4.1660793
0.92841244 -0.05 0.014594726 -24.507179 5.3246205e-16 -4.1493745
0.92222303 -0.05 0.013547287 -24.537468 -1.5661366e-15 -4.1295548
0.91603258 -0.05 0.012506049 -24.547969 -5.5684101e-16 -4.1070757
0.90984111 -0.05 0.01147086 -24.541141 3.5621573e-17 -4.0817704
0.90364863 -0.05 0.010441724 -24.515233 4.9437429e-16 -4.0532336
0.89745516 -0.05 0.0094186092 -24.47277 -9.220084e-16 -4.0222396
0.89126072 -0.05 0.0084013808 -24.415134 -1.0426177e-15 -3.9890034
0.88506531 -0.05 0.0073900253 -24.3489 -6.4510879e-16 -3.9542442
0.87886893 -0.05 0.0063845993 -24.27442 9.7040454e-16 -3.918478
0.87267163 -0.05 0.0053849663 -24.195382 1.6070308e-15 -3.8826939
0.8664734 -0.05 0.0043910587 -24.110371 -8.7592828e-16 -3.8460047
0.86027425 -0.05 0.0034029052 -24.020286 -4.0102149e-16 -3.8090158
0.8540742 -0.05 0.0024204198 -23.922697 1.4194861e-15 -3.7713201
0.84787327 -0.05 0.0014435405 -23.816566 -1.5942839e-16 -3.7326176
0.84167145 -0.05 0.00047228111 -23.698357 -5.5930859e-16 -3.6922908
0.83546875 -0.05 -0.00049332207 -23.567835 -5.7417769e-16 -3.6505179
0.82926519 -0.05 -0.0014534435 -23.425133 -1.0105208e-15 -3.607502
0.82306079 -0.05 -0.0024080431 -23.272441 -1.0596381e-15 -3.5625233
0.81685554 -0.05 -0.0033570743 -23.112536 1.7874715e-16 -3.5172207
0.81064944 -0.05 -0.0043006162 -22.949868 -3.9966661e-16 -3.4715242
0.80444251 -0.05 -0.0052386782 -22.785131 1.0148075e-15 -3.4260795
0.79823476 -0.05 -0.0061712917 -22.618812 -3.3386587e-16 -3.3804961
0.79202619 -0.05 -0.0070984113 -22.4503 7.603447e-16 -3.3350917
0.78581682 -0.05 -0.0080201234 -22.28171 -1.5020583e-15 -3.2901299
0.77960665 -0.05 -0.0089363926 -22.111381 -2.0453671e-16 -3.2450429
0.77339566 -0.05 -0.0098471876 -21.938484 -9.86762e-16 -3.2002353
0.76718388 -0.05 -0.010752568 -21.760432 1.0786383e-15 -3.1550961
0.76097131 -0.05 -0.011652521 -21.574381 -4.6617244e-16 -3.1092159
0.75475796 -0.05 -0.012547036 -21.376507 1.3213333e-15 -3.0619832
0.74854383 -0.05 -0.013436084 -21.164185 2.6197617e-16 -3.0129598
0.74232891 -0.05 -0.014319649 -20.937729 8.5248718e-16 -2.9621714
0.73611321 -0.05 -0.015197718 -20.703442 2.7244737e-16 -2.9103649
0.72989673 -0.05 -0.016070255 -20.468128 7.3939331e-16 -2.8586911
0.72367949 -0.05 -0.016937293 -20.235155 -3.0793841e-16 -2.8078034
0.71746148 -0.05 -0.01779886 -20.004267 1.2657149e-16 -2.757407
0.7112427 -0.05 -0.018654784 -19.775072 1.4616442e-15 -2.7074077
0.70502315 -0.05 -0.019505114 -19.548338 1.1425263e-15 -2.6585714
0.69880283 -0.05 -0.020349817 -19.323376 7.4721677e-16 -2.6099067
0.69258173 -0.05 -0.021188798 -19.098444 -2.1639833e-16 -2.5621039
0.68635988 -0.05 -0.022022116 -18.871005 -9.4670086e-17 -2.5142866
0.68013725 -0.05 -0.022849671 -18.635047 -7.4194811e-16 -2.4658821
0.67391387 -0.05 -0.023671472 -18.384936 -1.3709997e-15 -2.4160291
0.66768971 -0.05 -0.024487406 -18.116169 1.1361606e-15 -2.3637898
0.66146478 -0.05 -0.02529737 -17.833673 1.1164648e-15 -2.3101569
0.65523907 -0.05 -0.02610145 -17.548819 -2.7886509e-16 -2.2565026
0.6490126 -0.05 -0.026899558 -17.26458 8.8519748e-16 -2.2030546
0.64278535 -0.05 -0.027691531 -16.980517 -1.3180345e-15 -2.1501769
0.63655732 -0.05 -0.028477333 -16.697556 -1.6619691e-15 -2.098141
0.63032851 -0.05 -0.029256969 -16.416295 -4.8438032e-17 -2.0469027
0.62409892 -0.05 -0.0300303 -16.136917 -4.0436108e-16 -1.9959349
0.61786853 -0.05 -0.030797241 -15.859892 -2.0386504e-15 -1.945762
0.61163736 -0.05 -0.031557789 -15.586819 5.2815429e-17 -1.8961374
0.6054054 -0.05 -0.032311802 -15.318566 -2.7579163e-16 -1.8470564
0.59917265 -0.05 -0.033059204 -15.052464 -1.1923872e-15 -1.7986861
0.59293909 -0.05 -0.033799915 -14.788735 -6.582135e-16 -1.7508164
0.58670472 -0.05 -0.034533842 -14.528246 1.2118634e-15 -1.703799
0.58046955 -0.05 -0.035260869 -14.270136 -1.6929402e-15 -1.6571806
0.57423357 -0.05 -0.035980853 -14.014104 2.560622e-16 -1.6111303
0.56799677 -0.05 -0.036693761 -13.760364 -3.7429625e-16 -1.5653649
0.56175915 -0.05 -0.037399469 -13.508878 -2.11172e-15 -1.5202434
0.55552071 -0.05 -0.038097818 -13.259085 -6.5770337e-16 -1.4757897
0.54928144 -0.05 -0.038788735 -13.010689 -2.4812867e-17 -1.4319986
0.54304133 -0.05 -0.039472059 -12.764334 1.1499289e-15 -1.3889581
0.53680039 -0.05 -0.040147649 -12.52339 2.3415437e-16 -1.3469989
0.5305586 -0.05 -0.040815435 -12.289698 2.3704722e-16 -1.3062117
0.52431595 -0.05 -0.041475245 -12.058284 -9.8318588e-16 -1.2659602
0.51807246 -0.05 -0.042126938 -11.836543 7.1584958e-16 -1.227043
0.51182811 -0.05 -0.042770345 -11.621688 -1.5034535e-16 -1.1889688
0.5055829 -0.05 -0.043405329 -11.414534 -2.453155e-16 -1.1520294
0.49933683 -0.05 -0.044031766 -11.215848 8.6687842e-16 -1.1161608
0.49308988 -0.05 -0.044649458 -11.025727 8.2555462e-16 -1.0813997
0.48684205 -0.05 -0.045258203 -10.843672 -6.3452833e-18 -1.0477249
0.48059335 -0.05 -0.045857875 -10.668439 3.9458299e-16 -1.0150936
0.47434377 -0.05 -0.046448338 -10.499157 5.9522729e-18 -0.98316849
0.46809331 -0.05 -0.047029339 -10.334637 -1.5371135e-16 -0.95183311
0.46184195 -0.05 -0.047600665 -10.174476 2.8827534e-16 -0.92111352
0.45558971 -0.05 -0.048162153 -10.018528 -7.9517477e-16 -0.89099086
0.44933656 -0.05 -0.048713621 -9.8668425 -8.3653253e-16 -0.86138803
0.44308253 -0.05 -0.049254841 -9.7191106 2.4353292e-16 -0.83225705
0.4368276 -0.05 -0.049785572 -9.5751871 -3.9202808e-16 -0.8035937
0.43057177 -0.05 -0.050305607 -9.4348113 5.2701469e-16 -0.77541204
0.42431503 -0.05 -0.050814743 -9.2981503 -4.9178168e-16 -0.74767113
0.4180574 -0.05 -0.051312733 -9.1649423 1.2725056e-16 -0.72028563
0.41179888 -0.05 -0.051799299 -9.0350849 3.7723005e-16 -0.69328173
0.40553947 -0.05 -0.052274214 -8.9085743 6.4281624e-16 -0.66666961
0.39927916 -0.05 -0.052737194 -8.785325 -8.434918e-17 -0.64031396
0.39301794 -0.05 -0.05318793 -8.6647749 -5.3303563e-16 -0.61431076
0.38675586 -0.05 -0.053626205 -8.5474094 8.7946366e-16 -0.58869078
0.3804929 -0.05 -0.054051779 -8.4333449 1.9978799e-17 -0.56332434
0.37422904 -0.05 -0.054464253 -8.3221733 -8.3876449e-17 -0.5380868
0.36796434 -0.05 -0.054863307 -8.2135401 -5.7976654e-16 -0.51322365
0.36169877 -0.05 -0.055248697 -8.1081234 3.9395806e-16 -0.48859491
0.35543236 -0.05 -0.055620086 -8.0056467 -3.8105581e-17 -0.46416936
0.34916512 -0.05 -0.055977118 -7.9060607 -4.6373989e-16 -0.43989001
0.34289705 -0.05 -0.056319404 -7.8092343 -4.9306682e-16 -0.41576924
0.33662817 -0.05 -0.056646613 -7.7154215 -4.3283506e-16 -0.39186305
0.33035851 -0.05 -0.056958355 -7.6244158 1.5214348e-16 -0.36800183
0.32408808 -0.05 -0.057254204 -7.5358934 6.7556466e-17 -0.34431457
0.3178169 -0.05 -0.057533768 -7.4510151 1.3189969e-16 -0.32080384
0.311545 -0.05 -0.057796633 -7.3705307 -3.7114394e-16 -0.2974622
0.30527241 -0.05 -0.058042363 -7.2361444 -9.61351e-17 -0.27102145
0.29496165 -0.05 0.061669109 -7.0322171 1.8785474e-16 -0.27369541
0.28932859 -0.05 0.061451962 -7.1286931 -2.9892925e-16 -0.29604985
0.28377721 -0.05 0.061223384 -7.3016929 -6.1174568e-17 -0.32308005
0.27830636 -0.05 0.060983545 -7.4670782 -3.0418417e-16 -0.35045702
0.27291491 -0.05 0.060732672 -7.6333687 2.2738988e-16 -0.37889297
0.26760176 -0.05 0.060471019 -7.7990629 1.4067225e-16 -0.40850416
0.26236581 -0.05 0.060198825 -7.9650085 -6.0460392e-17 -0.43921402
0.257206 -0.05 0.059916295 -8.1313153 -4.1519253e-16 -0.47116656
0.25212125 -0.05 0.059623681 -8.2974681 4.0083584e-16 -0.50412811
0.24711053 -0.05 0.059321191 -8.4632095 -2.0486309e-16 -0.53842323
0.24217281 -0.05 0.059008973 -8.6275121 -7.096292e-17 -0.57372832
0.23730707 -0.05 0.058687269 -8.790781 3.953383e-17 -0.61018778
0.23251232 -0.05 0.058356287 -8.9529828 -1.0351961e-16 -0.64775221
0.22778755 -0.05 0.058016253 -9.1136834 4.1152535e-17 -0.68647561
0.22313181 -0.05 0.057667377 -9.274123 -7.7408981e-17 -0.7265398
0.21854414 -0.05 0.057309798 -9.433534 -5.6849872e-16 -0.76788083
0.21402359 -0.05 0.056943746 -9.5919531 4.6715178e-16 -0.8102631
0.20956923 -0.05 0.056569411 -9.749054 -3.9694583e-16 -0.85404301
0.20518014 -0.05 0.056186893 -9.9034737 -3.0602987e-16 -0.89884576
0.20085543 -0.05 0.055796425 -10.056054 -5.1050363e-16 -0.94473379
0.19659421 -0.05 0.05539819 -10.206123 -2.2889513e-16 -0.99177662
0.19239559 -0.05 0.054992388 -10.353631 -1.6743485e-16 -1.0398449
0.18825871 -0.05 0.054579191 -10.499979 -2.4543294e-16 -1.0894308
0.18418273 -0.05 0.054158656 -10.644518 -3.4606983e-16 -1.1402485
0.1801668 -0.05 0.053731004 -10.787478 2.0557944e-16 -1.1920866
0.1762101 -0.05 0.053296397 -10.928869 1.1129772e-16 -1.2453739
0.17231182 -0.05 0.052854968 -11.067759 2.8458511e-16 -1.2996144
0.16847114 -0.05 0.052406896 -11.20471 -2.0320299e-16 -1.3552439
0.16468728 -0.05 0.051952314 -11.339481 7.0394578e-17 -1.4120812
0.16095948 -0.05 0.051491333 -11.471916 4.0852875e-16 -1.4703006
0.15728695 -0.05 0.051024057 -11.601822 -7.5112124e-17 -1.5295464
0.15366893 -0.05 0.050550683 -11.729795 1.6777964e-16 -1.590081
0.15010471 -0.05 0.050071299 -11.854208 -3.1278891e-18 -1.6518228
0.14659354 -0.05 0.049586021 -11.974727 -6.8992293e-16 -1.7144616
0.1431347 -0.05 0.049094973 -12.091941 -1.6062418e-16 -1.7784351
0.13972748 -0.05 0.048598224 -12.204489 2.146083e-16 -1.8433107
0.13637118 -0.05 0.048095907 -12.31188 -9.9484195e-17 -1.9089962
0.13306514 -0.05 0.047588114 -12.413663 2.2104212e-16 -1.9754306
0.12980864 -0.05 0.047074989 -12.510119 8.1097299e-17 -2.0426134
0.12660104 -0.05 0.046556619 -12.600836 -7.8014169e-17 -2.110913
0.12344169 -0.05 0.046033006 -12.684242 -3.353375e-16 -2.1793759
0.12032994 -0.05 0.045504311 -12.761632 4.1555094e-17 -2.2482452
0.11726515 -0.05 0.044970631 -12.833837 1.3647823e-16 -2.3183439
0.1142467 -0.05 0.044431959 -12.902437 -3.2934239e-16 -2.3899081
0.111274 -0.05 0.043888349 -12.971038 -4.5217718e-16 -2.4628625
0.10834644 -0.05 0.04333991 -13.034812 -1.3296646e-16 -2.5364746
0.10546344 -0.05 0.042786651 -13.08975 1.9917136e-17 -2.610353
0.1026244 -0.05 0.042228644 -13.134635 -2.0836477e-16 -2.6839672
0.099828737 -0.05 0.041666024 -13.170459 8.8493073e-16 -2.7587467
0.097075926 -0.05 0.041098712 -13.197003 4.3308037e-16 -2.8344846
0.094365415 -0.05 0.040526742 -13.217353 -3.9552768e-16 -2.9111907
0.09169665 -0.05 0.039950235 -13.241104 6.6373356e-16 -2.9917512
0.089069131 -0.05 0.039369089 -13.268457 -1.475037e-16 -3.0758498
0.086482335 -0.05 0.038783349 -13.296704 9.717794e-17 -3.1627797
0.08393575 -0.05 0.038193059 -13.335012 -2.1615746e-17 -3.2551622
0.08142888 -0.05 0.037598228 -13.382897 7.5362419e-16 -3.352086
0.078961238 -0.05 0.036998878 -13.434571 2.2577839e-16 -3.4537337
0.076532379 -0.05 0.036394886 -13.488744 -5.3439162e-16 -3.559549
0.074141846 -0.05 0.035786226 -13.545503 -9.2212619e-16 -3.6693395
0.071789171 -0.05 0.035172952 -13.606264 1.6859084e-16 -3.7839961
0.069473908 -0.05 0.034555064 -13.671315 6.7346493e-17 -3.9044018
0.067195657 -0.05 0.033932434 -13.737867 4.0975644e-16 -4.0293413
0.064954007 -0.05 0.033305004 -13.80341 -2.4188194e-16 -4.1582356
0.062748551 -0.05 0.032672752 -13.867165 5.8782979e-16 -4.2918834
0.060578914 -0.05 0.032035571 -13.927217 -1.2299439e-15 -4.4297633
0.058444731 -0.05 0.031393363 -13.981032 7.1624348e-16 -4.5712564
0.056345641 -0.05 0.030746049 -14.026924 -1.3414173e-16 -4.7162877
0.054281308 -0.05 0.030093512 -14.063486 -6.3187772e-16 -4.86453
0.052251385 -0.05 0.029435705 -14.091605 -2.7928626e-16 -5.0168205
0.050255587 -0.05 0.028772425 -14.111095 -1.3944918e-16 -5.1727559
0.048293631 -0.05 0.02810351 -14.120071 8.3407043e-16 -5.3311297
0.046365217 -0.05 0.027428881 -14.119726 -2.4564975e-16 -5.493343
0.044470098 -0.05 0.026748343 -14.10839 -7.4866058e-16 -5.6589711
0.042608047 -0.05 0.026061701 -14.084961 -2.5237038e-16 -5.8280239
0.040778885 -0.05 0.025368672 -14.047221 -7.4433333e-16 -5.999022
0.038982418 -0.05 0.02466905 -13.99487 1.8532599e-16 -6.1717483
0.037218455 -0.05 0.023962681 -13.928073 -6.7642145e-16 -6.3471337
0.035486877 -0.05 0.023249271 -13.844962 4.2088448e-16 -6.5243073
0.033787594 -0.05 0.022528511 -13.744124 -5.3671577e-16 -6.7030645
0.032120545 -0.05 0.02180008 -13.625027 1.0681608e-16 -6.8853979
0.03048569 -0.05 0.021063663 -13.485461 -1.9851864e-16 -7.0691027
0.028883039 -0.05 0.020318906 -13.32437 -7.4350714e-17 -7.2420081
0.027312665 -0.05 0.019565381 -13.139638 1.1079796e-16 -7.4154584
0.025774655 -0.05 0.01880271 -12.932789 4.6282798e-16 -7.5896729
0.024269176 -0.05 0.018030412 -12.700238 3.9763992e-16 -7.7581565
0.022796462 -0.05 0.017247982 -12.440071 -4.7685158e-16 -7.9195131
0.021356794 -0.05 0.016454919 -12.151992 3.8063018e-16 -8.0720483
0.019950581 -0.05 0.015650615 -11.834934 -3.8220521e-16 -8.2124672
0.018578253 -0.05 0.014834514 -11.489147 4.6326962e-16 -8.3395566
0.017240415 -0.05 0.014005916 -11.112677 6.6116875e-16 -8.4493081
0.015937758 -0.05 0.01316409 -10.702004 -4.0182001e-16 -8.5404116
0.014671066 -0.05 0.012308324 -10.253287 3.4007923e-16 -8.6064918
0.013441316 -0.05 0.011437812 -9.7637748 -2.4649059e-16 -8.6396918
0.012249668 -0.05 0.01055174 -9.2324684 -5.3950998e-16 -8.6338546
0.011097477 -0.05 0.0096492668 -8.6604159 1.3096102e-16 -8.5857531
0.0099863332 -0.05 0.00872946 -8.0509433 6.1448255e-16 -8.4888068
0.0089180234 -0.05 0.0077913354 -7.4059051 2.9110268e-16 -8.3346541
0.0078946438 -0.05 0.0068341177 -6.723993 3.3821843e-16 -8.1135616
0.0069187141 -0.05 0.0058570638 -6.0128786 -4.6680472e-16 -7.8142758
0.0059930056 -0.05 0.0048591907 -5.2810864 -1.1351936e-16 -7.4295691
0.0051206013 -0.05 0.003839886 -4.5394608 5.7004295e-17 -6.953775
0.0043052374 -0.05 0.0027991241 -3.8017789 1.5960784e-17 -6.3821514
0.0035507956 -0.05 0.0017366727 -3.0843155 -3.5476976e-16 -5.7124436
0.0028613538 -0.05 0.0006528599 -2.4044311 -3.4829286e-16 -4.9480849
0.0022415992 -0.05 -0.0004508215 -1.7696194 9.9581624e-17 -4.097841
0.0016960489 -0.05 -0.0015727311 -1.2089098 9.2871247e-17 -3.1804643
0.0012289486 -0.05 -0.0027102131 -0.75667774 -3.270426e-16 -2.2196984
0.0008440746 -0.05 -0.0038590895 -0.43775328 1.5711112e-16 -1.2751364
0.00054434368 -0.05 -0.0050148501 -0.25013805 7.6278839e-18 -0.60292817
0.00033131323 -0.05 -0.0061721294 -0.16102189 -5.3902553e-18 -0.0041911999
0.00020484511 -0.05 -0.0073248705 -0.11576149 -6.0023325e-18 0.59425035
0.00016322191 -0.05 -0.0084670668 -0.14342997 2.4103915e-19 1.3058879
0.99638953 -0.05 0.027441435 0.10498582 4.9623158e-16 0.083215243
0.99014806 -0.05 0.028112171 -0.060059456 8.0829999e-16 0.0069963973
0.98390583 -0.05 0.028775888 -0.0025354665 2.6981409e-16 0.0013300112
0.97766287 -0.05 0.029432613 -0.033371913 5.1393855e-17 0.0046246125
0.97141918 -0.05 0.030082454 -0.033427993 5.6961177e-16 0.004408831
0.9651748 -0.05 0.030725569 -0.047962325 2.2962251e-16 0.0058861592
0.95892973 -0.05 0.031361941 -0.05903206 -5.3084849e-16 0.0068472799
0.95268398 -0.05 0.031991635 -0.072525764 8.7098814e-16 0.0080892478
0.94643758 -0.05 0.032614806 -0.085949991 2.7138833e-16 0.0092760914
0.94019053 -0.05 0.033231541 -0.099969495 -1.5147522e-19 0.010503823
0.93394286 -0.05 0.033841842 -0.11425118 -1.2429507e-16 0.011723307
0.92769457 -0.05 0.034445773 -0.12863804 4.5615728e-16 0.012930471
0.92144567 -0.05 0.035043408 -0.1432297 -1.3274045e-16 0.014142535
0.91519618 -0.05 0.035634784 -0.15793387 2.2093422e-16 0.015335382
0.90894611 -0.05 0.036220054 -0.17288185 4.007094e-16 0.016521231
0.90269547 -0.05 0.036799213 -0.18793628 1.4689726e-16 0.017684429
0.89644428 -0.05 0.037372295 -0.20307428 -1.6510559e-18 0.018848297
0.89019254 -0.05 0.037939436 -0.21850868 -3.4728969e-16 0.020043956
0.88394027 -0.05 0.038500649 -0.23443356 -2.1334374e-16 0.021252595
0.87768745 -0.05 0.039055879 -0.25125357 -8.2921492e-17 0.022449704
0.87143413 -0.05 0.039605264 -0.26839263 1.0024432e-16 0.023663994
0.8651803 -0.05 0.040148872 -0.2858143 7.4506361e-17 0.02487571
0.85892597 -0.05 0.040686673 -0.30336308 -1.6412365e-16 0.026067978
0.85267115 -0.05 0.041218757 -0.32116015 1.6155723e-16 0.027252652
0.84641585 -0.05 0.041745185 -0.33922823 -3.5078534e-17 0.028429206
0.84016008 -0.05 0.042265944 -0.3576118 4.854729e-16 0.029597667
0.83390383 -0.05 0.042780998 -0.37614385 3.2763016e-16 0.030753549
0.82764713 -0.05 0.043290523 -0.3950702 1.3151288e-16 0.031907985
0.82138998 -0.05 0.043794479 -0.41439463 3.8607845e-16 0.033057502
0.81513238 -0.05 0.04429282 -0.43394129 7.3503112e-17 0.034195198
0.80887434 -0.05 0.044785626 -0.45391596 -2.1163351e-16 0.035330277
0.80261587 -0.05 0.045272905 -0.47423121 2.1006704e-16 0.036460346
0.79635698 -0.05 0.04575469 -0.49501524 -2.2143727e-16 0.03758688
0.79009765 -0.05 0.046230937 -0.51612227 1.7561409e-16 0.0387072
0.78383793 -0.05 0.046701733 -0.53773309 -1.2543843e-17 0.03982579
0.77757779 -0.05 0.047167042 -0.55988707 3.9884311e-16 0.040941822
0.77131724 -0.05 0.047626833 -0.58242092 -1.9678439e-17 0.042052296
0.7650563 -0.05 0.048081166 -0.60554169 1.2675012e-16 0.043164952
0.75879494 -0.05 0.048530028 -0.62917107 2.432752e-16 0.044269676
0.75253321 -0.05 0.048973409 -0.65342461 6.3716683e-17 0.045376133
0.74627109 -0.05 0.049411282 -0.67825657 -4.9673428e-16 0.046475241
0.74000858 -0.05 0.04984363 -0.7037273 -2.156113e-16 0.047572339
0.7337457 -0.05 0.05027044 -0.72984835 2.294164e-16 0.04866399
0.72748244 -0.05 0.050691676 -0.75659743 -3.4430971e-16 0.049756771
0.72121881 -0.05 0.051107371 -0.78404554 -3.3373876e-17 0.050853558
0.71495481 -0.05 0.051517556 -0.81249319 1.0888517e-17 0.051948397
0.70869045 -0.05 0.051922056 -0.84161519 -3.2683315e-16 0.053024963
0.70242572 -0.05 0.05232092 -0.87151773 1.3712129e-16 0.054112371
0.69616063 -0.05 0.052714117 -0.90241092 2.9781873e-17 0.055176516
0.68989519 -0.05 0.053101552 -0.93390755 -2.3801535e-17 0.056238013
0.68362939 -0.05 0.053483282 -0.96648432 2.3937938e-17 0.057287468
0.67736325 -0.05 0.053859209 -0.99991483 4.2024336e-16 0.058326674
0.67109676 -0.05 0.054229343 -1.0344281 -3.4289638e-17 0.059355904
0.66482993 -0.05 0.054593568 -1.0700112 -2.865247e-17 0.060355637
0.65856275 -0.05 0.054951783 -1.1064528 2.1403178e-16 0.061349068
0.65229523 -0.05 0.055304075 -1.1444779 2.7974605e-17 0.06236451
0.64602737 -0.05 0.055650355 -1.1845159 1.3507223e-16 0.063411658
0.63975919 -0.05 0.055990458 -1.2271548 1.7063381e-16 0.06458103
0.63349065 -0.05 0.056324351 -1.2735119 2.3169489e-16 0.065895471
0.62722181 -0.05 0.056652037 -1.3236641 5.4208161e-16 0.067239537
0.62095263 -0.05 0.056973379 -1.375904 -1.839557e-16 0.068468551
0.61468313 -0.05 0.05728829 -1.429101 7.8153332e-18 0.069605215
0.60841329 -0.05 0.057596769 -1.4834682 -1.1243219e-16 0.070653078
0.60214314 -0.05 0.057898671 -1.5389328 1.5655039e-16 0.071615739
0.59587269 -0.05 0.058193924 -1.5956058 7.8069326e-17 0.072491188
0.58960191 -0.05 0.058482443 -1.6537773 -3.727417e-17 0.073222494
0.58333082 -0.05 0.05876414 -1.7133823 1.3959062e-16 0.073618246
0.57705941 -0.05 0.059038896 -1.7741309 -1.2687119e-17 0.073935582
0.57078772 -0.05 0.059306568 -1.836136 1.8914668e-16 0.074426101
0.56451572 -0.05 0.059567123 -1.9000026 2.1037589e-16 0.074843905
0.55824343 -0.05 0.05982044 -1.9657159 -1.3243057e-16 0.075132616
0.55197083 -0.05 0.060066356 -2.0332308 -1.8767426e-16 0.075304375
0.54569795 -0.05 0.0603048 -2.1027818 -6.1460316e-17 0.07534825
0.53942478 -0.05 0.060535609 -2.1743631 7.1344859e-18 0.075230256
0.53315134 -0.05 0.060758645 -2.2477202 2.1524755e-16 0.074981721
0.52687762 -0.05 0.060973837 -2.3233447 9.6077412e-17 0.074563422
0.52060363 -0.05 0.061181012 -2.4010435 -1.3429143e-16 0.073954563
0.51432937 -0.05 0.061380029 -2.4808701 -5.2172723e-17 0.073158033
0.50805485 -0.05 0.06157072 -2.5628222 -1.5923702e-16 0.072137119
0.50178009 -0.05 0.061752947 -2.6470656 1.095823e-17 0.070919355
0.49550509 -0.05 0.061926588 -2.7338371 9.1983527e-17 0.06944362
0.48922984 -0.05 0.062091444 -2.8229182 1.9762813e-16 0.067706185
0.48295437 -0.05 0.062247312 -2.9142022 -2.4547875e-17 0.065680242
0.47667867 -0.05 0.062394069 -3.0079419 -4.7548481e-18 0.063400343
0.47040277 -0.05 0.062531576 -3.104361 -9.4422384e-17 0.060777446
0.46412666 -0.05 0.062659582 -3.2032264 3.5943619e-17 0.057795102
0.45785037 -0.05 0.062777875 -3.3046066 -2.7193832e-17 0.054451558
0.45157389 -0.05 0.06288629 -3.4087559 -6.5602945e-17 0.050750275
0.44529725 -0.05 0.062984647 -3.5155717 -3.3245083e-17 0.046626737
0.43902046 -0.05 0.063072718 -3.625079 1.4098941e-16 0.042050072
0.43274354 -0.05 0.063150264 -3.7372313 1.7230108e-17 0.037000284
0.42646648 -0.05 0.063217075 -3.8520968 7.7328912e-17 0.031482586
0.42018932 -0.05 0.063272952 -3.9698936 7.4041111e-17 0.025496281
0.41391207 -0.05 0.063317647 -4.0907006 1.1129027e-17 0.019203044
0.40763474 -0.05 0.063350883 -4.2142998 -9.4779414e-18 0.011590214
0.40135737 -0.05 0.063372434 -4.3410228 5.9137433e-18 0.0037621287
0.39507997 -0.05 0.063382016 -4.4705861 5.3679291e-18 -0.0048883396
0.38880256 -0.05 0.063379322 -4.6026954 3.2021548e-18 -0.014409154
0.38252517 -0.05 0.063364136 -4.7379146 1.3311992e-17 -0.02435218
0.37624783 -0.05 0.063336218 -4.8767771 4.6965961e-18 -0.034913323
0.36997055 -0.05 0.063295172 -5.0186537 -1.9872214e-17 -0.046613654
0.36369337 -0.05 0.063240677 -5.1630729 5.6675002e-17 -0.059137422
0.35741634 -0.05 0.063172493 -5.3107624 -7.2687025e-17 -0.072628843
0.35113948 -0.05 0.063090283 -5.4617115 -3.1147771e-17 -0.087119304
0.34486281 -0.05 0.062993693 -5.6159787 -5.3887854e-18 -0.1027169
0.33858638 -0.05 0.062882335 -5.7733692 2.0306223e-17 -0.11942504
0.33231025 -0.05 0.062755883 -5.9336843 1.3774e-16 -0.13725469
0.32603445 -0.05 0.062613948 -6.0969144 1.5986846e-16 -0.15638982
0.31975903 -0.05 0.062456104 -6.2625823 1.5723248e-17 -0.17679215
0.31348404 -0.05 0.062281966 -6.4301789 1.4638358e-16 -0.19864201
0.30720954 -0.05 0.062091118 -6.6035869 -1.1656011e-16 -0.2223687
0.30093558 -0.05 0.061883131 -6.838528 1.9739401e-17 -0.24923156
