# yPlus  FACE_DATA 448
# x y z  yPlus
0.29929863 -0.05 -0.058260402 22.904806
0.2936646 -0.05 -0.058450704 22.877435
0.2881112 -0.05 -0.058623705 22.680548
0.28263732 -0.05 -0.058779657 22.494233
0.27724183 -0.05 -0.058918867 22.31414
0.27192366 -0.05 -0.059041672 22.141429
0.26668173 -0.05 -0.059148387 21.97578
0.26151498 -0.05 -0.059239294 21.816774
0.25642239 -0.05 -0.05931472 21.664543
0.25140291 -0.05 -0.05937495 21.518961
0.24645553 -0.05 -0.059420203 21.378994
0.24157927 -0.05 -0.059450796 21.244654
0.23677313 -0.05 -0.059467007 21.115241
0.23203614 -0.05 -0.059469136 20.989967
0.22736736 -0.05 -0.059457461 20.870488
0.22276585 -0.05 -0.059432188 20.756091
0.21823065 -0.05 -0.059393615 20.647066
0.21376089 -0.05 -0.059342001 20.544038
0.20935564 -0.05 -0.059277509 20.445493
0.20501403 -0.05 -0.059200439 20.352055
0.20073517 -0.05 -0.059111038 20.263943
0.19651821 -0.05 -0.059009565 20.181072
0.19236229 -0.05 -0.058896259 20.103831
0.18826657 -0.05 -0.058771235 20.03056
0.18423025 -0.05 -0.058634774 19.961367
0.1802525 -0.05 -0.058487099 19.897156
0.17633251 -0.05 -0.058328399 19.836428
0.1724695 -0.05 -0.058158913 19.780556
0.16866269 -0.05 -0.05797883 19.728419
0.16491132 -0.05 -0.057788317 19.680466
0.16121463 -0.05 -0.057587531 19.635778
0.15757189 -0.05 -0.057376725 19.595529
0.15398234 -0.05 -0.057156041 19.559773
0.15044529 -0.05 -0.056925646 19.527403
0.14696001 -0.05 -0.056685716 19.499339
0.14352581 -0.05 -0.056436371 19.474188
0.140142 -0.05 -0.056177795 19.452271
0.13680791 -0.05 -0.055910127 19.433727
0.13352286 -0.05 -0.055633562 19.418243
0.1302862 -0.05 -0.055348233 19.406593
0.12709728 -0.05 -0.055054192 19.396855
0.12395547 -0.05 -0.054751642 19.390044
0.12086013 -0.05 -0.054440729 19.387273
0.11781066 -0.05 -0.05412149 19.386751
0.11480646 -0.05 -0.05379402 19.388587
0.11184693 -0.05 -0.053458473 19.393048
0.1089315 -0.05 -0.053114902 19.400491
0.10605956 -0.05 -0.05276342 19.409151
0.10323057 -0.05 -0.052404203 19.422337
0.10044397 -0.05 -0.052037211 19.438611
0.097699228 -0.05 -0.051662518 19.456041
0.094995793 -0.05 -0.051280284 19.47713
0.09233316 -0.05 -0.050890445 19.500111
0.089710812 -0.05 -0.050493081 19.521929
0.087128241 -0.05 -0.050088275 19.546269
0.084584955 -0.05 -0.049676072 19.570348
0.082080466 -0.05 -0.049256527 19.598361
0.079614325 -0.05 -0.048829551 19.627655
0.077186073 -0.05 -0.048395152 19.658662
0.074795245 -0.05 -0.047953415 19.692444
0.072441399 -0.05 -0.047504375 19.730668
0.070124126 -0.05 -0.047047931 19.770999
0.067843013 -0.05 -0.046584056 19.811123
0.065597649 -0.05 -0.046112758 19.852918
0.063387655 -0.05 -0.045633958 19.895767
0.061212659 -0.05 -0.045147581 19.939325
0.059072296 -0.05 -0.044653577 19.98443
0.056966222 -0.05 -0.044151853 20.031046
0.054894087 -0.05 -0.043642387 20.077552
0.052855592 -0.05 -0.043124998 20.127468
0.050850445 -0.05 -0.042599545 20.175156
0.048878338 -0.05 -0.042065968 20.227523
0.046939014 -0.05 -0.041524095 20.284762
0.045032231 -0.05 -0.040973745 20.349941
0.043157788 -0.05 -0.040414647 20.418793
0.041315478 -0.05 -0.039846615 20.4868
0.039505102 -0.05 -0.039269503 20.555007
0.037726516 -0.05 -0.03868303 20.624343
0.035979611 -0.05 -0.038086892 20.695867
0.034264301 -0.05 -0.037480777 20.774933
0.032580525 -0.05 -0.036864371 20.856323
0.030928265 -0.05 -0.036237321 20.939263
0.029307566 -0.05 -0.035599193 21.026849
0.027718484 -0.05 -0.034949606 21.122837
0.026161154 -0.05 -0.034288068 21.238788
0.024635771 -0.05 -0.033614057 21.36618
0.02314258 -0.05 -0.032927055 21.482379
0.021681944 -0.05 -0.032226423 21.577631
0.020254253 -0.05 -0.031511578 21.633517
0.018860059 -0.05 -0.030781777 21.659609
0.0175 -0.05 -0.030036243 21.67689
0.016174803 -0.05 -0.029274207 21.736789
0.014885387 -0.05 -0.028494794 21.823797
0.01363285 -0.05 -0.02769711 21.99214
0.012418483 -0.05 -0.026880219 22.259455
0.011243803 -0.05 -0.026043073 22.639561
0.010110521 -0.05 -0.025184564 23.129447
0.0090206739 -0.05 -0.024303766 23.778362
0.0079767199 -0.05 -0.023399757 24.505801
0.0069813521 -0.05 -0.022471355 25.190723
0.0060376012 -0.05 -0.021517728 25.743176
0.0051491919 -0.05 -0.020538579 26.114767
0.0043199788 -0.05 -0.019533397 26.237567
0.0035540531 -0.05 -0.018502214 26.125717
0.0028561975 -0.05 -0.017446181 25.734236
0.0022310355 -0.05 -0.016366608 25.052751
0.0016829939 -0.05 -0.015265836 24.011222
0.0012161408 -0.05 -0.01414776 22.599045
0.0008337111 -0.05 -0.013016669 20.81222
0.00053764569 -0.05 -0.011877799 18.655928
0.00032824432 -0.05 -0.010737204 16.100647
0.00020422792 -0.05 -0.0096009979 13.132985
0.99642203 -0.05 0.02654267 50.232081
0.99024532 -0.05 0.025422858 41.485692
0.98406733 -0.05 0.024309993 41.576132
0.97788811 -0.05 0.023204048 41.889531
0.97170767 -0.05 0.022104918 42.094765
0.96552605 -0.05 0.021012446 42.27318
0.95934326 -0.05 0.019926647 42.412621
0.95315931 -0.05 0.018847462 42.523888
0.94697424 -0.05 0.017774735 42.613619
0.94078806 -0.05 0.016708382 42.684086
0.93460079 -0.05 0.015648399 42.739406
0.92841244 -0.05 0.014594726 42.778086
0.92222303 -0.05 0.013547287 42.802584
0.91603258 -0.05 0.012506049 42.809351
0.90984111 -0.05 0.01147086 42.801403
0.90364863 -0.05 0.010441724 42.776684
0.89745516 -0.05 0.0094186092 42.738171
0.89126072 -0.05 0.0084013808 42.685216
0.88506531 -0.05 0.0073900253 42.625511
0.87886893 -0.05 0.0063845993 42.558501
0.87267163 -0.05 0.0053849663 42.487547
0.8664734 -0.05 0.0043910587 42.410867
0.86027425 -0.05 0.0034029052 42.330115
0.8540742 -0.05 0.0024204198 42.242642
0.84787327 -0.05 0.0014435405 42.14774
0.84167145 -0.05 0.00047228111 42.041449
0.83546875 -0.05 -0.00049332207 41.924444
0.82926519 -0.05 -0.0014534435 41.795783
0.82306079 -0.05 -0.0024080431 41.658437
0.81685554 -0.05 -0.0033570743 41.513465
0.81064944 -0.05 -0.0043006162 41.366034
0.80444251 -0.05 -0.0052386782 41.216045
0.79823476 -0.05 -0.0061712917 41.064634
0.79202619 -0.05 -0.0070984113 40.910065
0.78581682 -0.05 -0.0080201234 40.754881
0.77960665 -0.05 -0.0089363926 40.597668
0.77339566 -0.05 -0.0098471876 40.437681
0.76718388 -0.05 -0.010752568 40.2723
0.76097131 -0.05 -0.011652521 40.098985
0.75475796 -0.05 -0.012547036 39.913672
0.74854383 -0.05 -0.013436084 39.714302
0.74232891 -0.05 -0.014319649 39.500271
0.73611321 -0.05 -0.015197718 39.277747
0.72989673 -0.05 -0.016070255 39.052809
0.72367949 -0.05 -0.016937293 38.828923
0.71746148 -0.05 -0.01779886 38.605789
0.7112427 -0.05 -0.018654784 38.383411
0.70502315 -0.05 -0.019505114 38.161748
0.69880283 -0.05 -0.020349817 37.941065
0.69258173 -0.05 -0.021188798 37.718735
0.68635988 -0.05 -0.022022116 37.49276
0.68013725 -0.05 -0.022849671 37.257054
0.67391387 -0.05 -0.023671472 37.005661
0.66768971 -0.05 -0.024487406 36.733542
0.66146478 -0.05 -0.02529737 36.445402
0.65523907 -0.05 -0.02610145 36.152594
0.6490126 -0.05 -0.026899558 35.858268
0.64278535 -0.05 -0.027691531 35.561513
0.63655732 -0.05 -0.028477333 35.263673
0.63032851 -0.05 -0.029256969 34.965096
0.62409892 -0.05 -0.0300303 34.665976
0.61786853 -0.05 -0.030797241 34.366722
0.61163736 -0.05 -0.031557789 34.069431
0.6054054 -0.05 -0.032311802 33.774685
0.59917265 -0.05 -0.033059204 33.479797
0.59293909 -0.05 -0.033799915 33.184903
0.58670472 -0.05 -0.034533842 32.89115
0.58046955 -0.05 -0.035260869 32.59742
0.57423357 -0.05 -0.035980853 32.303521
0.56799677 -0.05 -0.036693761 32.00949
0.56175915 -0.05 -0.037399469 31.715457
0.55552071 -0.05 -0.038097818 31.420749
0.54928144 -0.05 -0.038788735 31.125029
0.54304133 -0.05 -0.039472059 30.82891
0.53680039 -0.05 -0.040147649 30.536501
0.5305586 -0.05 -0.040815435 30.250166
0.52431595 -0.05 -0.041475245 29.964259
0.51807246 -0.05 -0.042126938 29.687572
0.51182811 -0.05 -0.042770345 29.41707
0.5055829 -0.05 -0.043405329 29.153868
0.49933683 -0.05 -0.044031766 28.89927
0.49308988 -0.05 -0.044649458 28.653286
0.48684205 -0.05 -0.045258203 28.415999
0.48059335 -0.05 -0.045857875 28.185644
0.47434377 -0.05 -0.046448338 27.96131
0.46809331 -0.05 -0.047029339 27.741432
0.46184195 -0.05 -0.047600665 27.525845
0.45558971 -0.05 -0.048162153 27.314132
0.44933656 -0.05 -0.048713621 27.106734
0.44308253 -0.05 -0.049254841 26.902912
0.4368276 -0.05 -0.049785572 26.70299
0.43057177 -0.05 -0.050305607 26.506418
0.42431503 -0.05 -0.050814743 26.313831
0.4180574 -0.05 -0.051312733 26.124544
0.41179888 -0.05 -0.051799299 25.938857
0.40553947 -0.05 -0.052274214 25.756448
0.39927916 -0.05 -0.052737194 25.577504
0.39301794 -0.05 -0.05318793 25.40102
0.38675586 -0.05 -0.053626205 25.22826
0.3804929 -0.05 -0.054051779 25.05899
0.37422904 -0.05 -0.054464253 24.893139
0.36796434 -0.05 -0.054863307 24.729626
0.36169877 -0.05 -0.055248697 24.570034
0.35543236 -0.05 -0.055620086 24.413754
0.34916512 -0.05 -0.055977118 24.261001
0.34289705 -0.05 -0.056319404 24.11139
0.33662817 -0.05 -0.056646613 23.965614
0.33035851 -0.05 -0.056958355 23.823145
0.32408808 -0.05 -0.057254204 23.683836
0.3178169 -0.05 -0.057533768 23.549207
0.311545 -0.05 -0.057796633 23.422631
0.30527241 -0.05 -0.058042363 23.098396
0.29496165 -0.05 0.061669109 22.949519
0.28932859 -0.05 0.061451962 22.907915
0.28377721 -0.05 0.061223384 23.080116
0.27830636 -0.05 0.060983545 23.236255
0.27291491 -0.05 0.060732672 23.391201
0.26760176 -0.05 0.060471019 23.543273
0.26236581 -0.05 0.060198825 23.693404
0.257206 -0.05 0.059916295 23.84241
0.25212125 -0.05 0.059623681 23.989312
0.24711053 -0.05 0.059321191 24.134309
0.24217281 -0.05 0.059008973 24.275662
0.23730707 -0.05 0.058687269 24.414328
0.23251232 -0.05 0.058356287 24.550279
0.22778755 -0.05 0.058016253 24.683396
0.22313181 -0.05 0.057667377 24.815256
0.21854414 -0.05 0.057309798 24.945206
0.21402359 -0.05 0.056943746 25.073039
0.20956923 -0.05 0.056569411 25.198774
0.20518014 -0.05 0.056186893 25.320681
0.20085543 -0.05 0.055796425 25.439962
0.19659421 -0.05 0.05539819 25.555921
0.19239559 -0.05 0.054992388 25.6686
0.18825871 -0.05 0.054579191 25.779984
0.18418273 -0.05 0.054158656 25.889374
0.1801668 -0.05 0.053731004 25.996797
0.1762101 -0.05 0.053296397 26.102895
0.17231182 -0.05 0.052854968 26.206094
0.16847114 -0.05 0.052406896 26.307592
0.16468728 -0.05 0.051952314 26.406708
0.16095948 -0.05 0.051491333 26.503935
0.15728695 -0.05 0.051024057 26.5985
0.15366893 -0.05 0.050550683 26.691194
0.15010471 -0.05 0.050071299 26.781097
0.14659354 -0.05 0.049586021 26.866864
0.1431347 -0.05 0.049094973 26.949711
0.13972748 -0.05 0.048598224 27.028165
0.13637118 -0.05 0.048095907 27.101504
0.13306514 -0.05 0.047588114 27.16995
0.12980864 -0.05 0.047074989 27.232886
0.12660104 -0.05 0.046556619 27.290883
0.12344169 -0.05 0.046033006 27.342123
0.12032994 -0.05 0.045504311 27.387592
0.11726515 -0.05 0.044970631 27.428163
0.1142467 -0.05 0.044431959 27.466748
0.111274 -0.05 0.043888349 27.506402
0.10834644 -0.05 0.04333991 27.541554
0.10546344 -0.05 0.042786651 27.569162
0.1026244 -0.05 0.042228644 27.586452
0.099828737 -0.05 0.041666024 27.595584
0.097075926 -0.05 0.041098712 27.597225
0.094365415 -0.05 0.040526742 27.592684
0.09169665 -0.05 0.039950235 27.593259
0.089069131 -0.05 0.039369089 27.600102
0.086482335 -0.05 0.038783349 27.60792
0.08393575 -0.05 0.038193059 27.628684
0.08142888 -0.05 0.037598228 27.659374
0.078961238 -0.05 0.036998878 27.696511
0.076532379 -0.05 0.036394886 27.738076
0.074141846 -0.05 0.035786226 27.783461
0.071789171 -0.05 0.035172952 27.833691
0.069473908 -0.05 0.034555064 27.890578
0.067195657 -0.05 0.033932434 27.951262
0.064954007 -0.05 0.033305004 28.011694
0.062748551 -0.05 0.032672752 28.072625
0.060578914 -0.05 0.032035571 28.132628
0.058444731 -0.05 0.031393363 28.188749
0.056345641 -0.05 0.030746049 28.239512
0.054281308 -0.05 0.030093512 28.284275
0.052251385 -0.05 0.029435705 28.322744
0.050255587 -0.05 0.028772425 28.358987
0.048293631 -0.05 0.02810351 28.386295
0.046365217 -0.05 0.027428881 28.409974
0.044470098 -0.05 0.026748343 28.427116
0.042608047 -0.05 0.026061701 28.438846
0.040778885 -0.05 0.025368672 28.443275
0.038982418 -0.05 0.02466905 28.438644
0.037218455 -0.05 0.023962681 28.426442
0.035486877 -0.05 0.023249271 28.407352
0.033787594 -0.05 0.022528511 28.378941
0.032120545 -0.05 0.02180008 28.345394
0.03048569 -0.05 0.021063663 28.301648
0.028883039 -0.05 0.020318906 28.242507
0.027312665 -0.05 0.019565381 28.173987
0.025774655 -0.05 0.01880271 28.098595
0.024269176 -0.05 0.018030412 28.011667
0.022796462 -0.05 0.017247982 27.910223
0.021356794 -0.05 0.016454919 27.795914
0.019950581 -0.05 0.015650615 27.668072
0.018578253 -0.05 0.014834514 27.523675
0.017240415 -0.05 0.014005916 27.36663
0.015937758 -0.05 0.01316409 27.186879
0.014671066 -0.05 0.012308324 26.983873
0.013441316 -0.05 0.011437812 26.746364
0.012249668 -0.05 0.01055174 26.472159
0.011097477 -0.05 0.0096492668 26.154035
0.0099863332 -0.05 0.00872946 25.792044
0.0089180234 -0.05 0.0077913354 25.370862
0.0078946438 -0.05 0.0068341177 24.875633
0.0069187141 -0.05 0.0058570638 24.290404
0.0059930056 -0.05 0.0048591907 23.601066
0.0051206013 -0.05 0.003839886 22.779233
0.0043052374 -0.05 0.0027991241 21.804001
0.0035507956 -0.05 0.0017366727 20.637814
0.0028613538 -0.05 0.0006528599 19.240117
0.0022415992 -0.05 -0.0004508215 17.551107
0.0016960489 -0.05 -0.0015727311 15.514133
0.0012289486 -0.05 -0.0027102131 13.021114
0.0008440746 -0.05 -0.0038590895 9.93639
0.00054434368 -0.05 -0.0050148501 6.90625
0.00033131323 -0.05 -0.0061721294 2.5559267
0.00020484511 -0.05 -0.0073248705 6.6534562
0.00016322191 -0.05 -0.0084670668 9.8660345
0.99638953 -0.05 0.027441435 2.5178742
0.99014806 -0.05 0.028112171 2.1250497
0.98390583 -0.05 0.028775888 0.45349602
0.97766287 -0.05 0.029432613 1.5785941
0.97141918 -0.05 0.030082454 1.5794821
0.9651748 -0.05 0.030725569 1.8909504
0.95892973 -0.05 0.031361941 2.0972524
0.95268398 -0.05 0.031991635 2.3241106
0.94643758 -0.05 0.032614806 2.5297571
0.94019053 -0.05 0.033231541 2.7279652
0.93394286 -0.05 0.033841842 2.9161174
0.92769457 -0.05 0.034445773 3.0941412
0.92144567 -0.05 0.035043408 3.2646597
0.91519618 -0.05 0.035634784 3.4280849
0.90894611 -0.05 0.036220054 3.5865956
0.90269547 -0.05 0.036799213 3.7395454
0.89644428 -0.05 0.037372295 3.8871673
0.89019254 -0.05 0.037939436 4.0321577
0.88394027 -0.05 0.038500649 4.1765366
0.87768745 -0.05 0.039055879 4.3237355
0.87143413 -0.05 0.039605264 4.4687087
0.8651803 -0.05 0.040148872 4.6114058
0.85892597 -0.05 0.040686673 4.7509199
0.85267115 -0.05 0.041218757 4.8882718
0.84641585 -0.05 0.041745185 5.0238979
0.84016008 -0.05 0.042265944 5.1581773
0.83390383 -0.05 0.042780998 5.2901561
0.82764713 -0.05 0.043290523 5.4215257
0.82138998 -0.05 0.043794479 5.552555
0.81513238 -0.05 0.04429282 5.6819391
0.80887434 -0.05 0.044785626 5.8113252
0.80261587 -0.05 0.045272905 5.9398946
0.79635698 -0.05 0.04575469 6.0687242
0.79009765 -0.05 0.046230937 6.1967326
0.78383793 -0.05 0.046701733 6.3251479
0.77757779 -0.05 0.047167042 6.4540722
0.77131724 -0.05 0.047626833 6.582675
0.7650563 -0.05 0.048081166 6.7120471
0.75879494 -0.05 0.048530028 6.8417988
0.75253321 -0.05 0.048973409 6.9723603
0.74627109 -0.05 0.049411282 7.1036341
0.74000858 -0.05 0.04984363 7.2357405
0.7337457 -0.05 0.05027044 7.3687825
0.72748244 -0.05 0.050691676 7.5025372
0.72121881 -0.05 0.051107371 7.637408
0.71495481 -0.05 0.051517556 7.7747063
0.70869045 -0.05 0.051922056 7.9128725
0.70242572 -0.05 0.05232092 8.0521723
0.69616063 -0.05 0.052714117 8.1937289
0.68989519 -0.05 0.053101552 8.3354804
0.68362939 -0.05 0.053483282 8.4796495
0.67736325 -0.05 0.053859209 8.6250544
0.67109676 -0.05 0.054229343 8.7726631
0.66482993 -0.05 0.054593568 8.9223071
0.65856275 -0.05 0.054951783 9.0729863
0.65229523 -0.05 0.055304075 9.2275132
0.64602737 -0.05 0.055650355 9.3876048
0.63975919 -0.05 0.055990458 9.5550907
0.63349065 -0.05 0.056324351 9.7339795
0.62722181 -0.05 0.056652037 9.9237776
0.62095263 -0.05 0.056973379 10.117755
0.61468313 -0.05 0.05728829 10.311499
0.60841329 -0.05 0.057596769 10.505845
0.60214314 -0.05 0.057898671 10.700426
0.59587269 -0.05 0.058193924 10.895716
0.58960191 -0.05 0.058482443 11.092553
0.58333082 -0.05 0.05876414 11.290713
0.57705941 -0.05 0.059038896 11.489101
0.57078772 -0.05 0.059306568 11.688236
0.56451572 -0.05 0.059567123 11.889795
0.55824343 -0.05 0.05982044 12.093721
0.55197083 -0.05 0.060066356 12.299656
0.54569795 -0.05 0.0603048 12.508342
0.53942478 -0.05 0.060535609 12.719511
0.53315134 -0.05 0.060758645 12.932395
0.52687762 -0.05 0.060973837 13.148186
0.52060363 -0.05 0.061181012 13.366367
0.51432937 -0.05 0.061380029 13.586833
0.50805485 -0.05 0.06157072 13.809538
0.50178009 -0.05 0.061752947 14.03472
0.49550509 -0.05 0.061926588 14.263129
0.48922984 -0.05 0.062091444 14.493776
0.48295437 -0.05 0.062247312 14.726477
0.47667867 -0.05 0.062394069 14.961535
0.47040277 -0.05 0.062531576 15.199679
0.46412666 -0.05 0.062659582 15.440013
0.45785037 -0.05 0.062777875 15.68267
0.45157389 -0.05 0.06288629 15.927975
0.44529725 -0.05 0.062984647 16.175917
0.43902046 -0.05 0.063072718 16.426059
0.43274354 -0.05 0.063150264 16.678403
0.42646648 -0.05 0.063217075 16.932897
0.42018932 -0.05 0.063272952 17.190191
0.41391207 -0.05 0.063317647 17.449992
0.40763474 -0.05 0.063350883 17.712029
0.40135737 -0.05 0.063372434 17.976461
0.39507997 -0.05 0.063382016 18.243125
0.38880256 -0.05 0.063379322 18.510906
0.38252517 -0.05 0.063364136 18.781102
0.37624783 -0.05 0.063336218 19.054412
0.36997055 -0.05 0.063295172 19.329952
0.36369337 -0.05 0.063240677 19.6062
0.35741634 -0.05 0.063172493 19.884825
0.35113948 -0.05 0.063090283 20.16547
0.34486281 -0.05 0.062993693 20.448626
0.33858638 -0.05 0.062882335 20.73323
0.33231025 -0.05 0.062755883 21.019389
0.32603445 -0.05 0.062613948 21.306571
0.31975903 -0.05 0.062456104 21.594423
0.31348404 -0.05 0.062281966 21.881487
0.30720954 -0.05 0.062091118 22.176258
0.30093558 -0.05 0.061883131 22.671142
