# p  FACE_DATA 448
# x y z  p
0.29465152 -0.05 -0.061894028 99545.808
0.28901963 -0.05 -0.061648608 99542.146
0.28346946 -0.05 -0.061392166 99539.666
0.27799988 -0.05 -0.061124868 99537.183
0.27260976 -0.05 -0.060846934 99534.816
0.26729799 -0.05 -0.060558614 99532.618
0.26206347 -0.05 -0.06026014 99530.484
0.25690514 -0.05 -0.059951713 99528.543
0.25182193 -0.05 -0.059633578 99526.591
0.24681279 -0.05 -0.05930594 99524.86
0.2418767 -0.05 -0.058968939 99523.244
0.23701264 -0.05 -0.058622815 99521.792
0.23221961 -0.05 -0.058267768 99520.46
0.22749661 -0.05 -0.057904021 99519.234
0.22284268 -0.05 -0.057531779 99518.101
0.21825685 -0.05 -0.057151175 99517.175
0.21373819 -0.05 -0.056762435 99516.262
0.20928577 -0.05 -0.056365745 99515.563
0.20489866 -0.05 -0.0559612 99515.03
0.20057596 -0.05 -0.055549028 99514.6
0.19631679 -0.05 -0.055129408 99514.357
0.19212027 -0.05 -0.054702535 99514.154
0.18798551 -0.05 -0.054268578 99514.119
0.18391169 -0.05 -0.053827587 99514.329
0.17989796 -0.05 -0.053379781 99514.552
0.17594349 -0.05 -0.052925318 99515.041
0.17204747 -0.05 -0.052464326 99515.58
0.1682091 -0.05 -0.05199698 99516.301
0.16442757 -0.05 -0.051523411 99517.126
0.16070212 -0.05 -0.051043723 99518.224
0.15703198 -0.05 -0.050558017 99519.467
0.15341639 -0.05 -0.050066487 99520.798
0.14985462 -0.05 -0.049569218 99522.357
0.14634593 -0.05 -0.049066321 99523.986
0.14288959 -0.05 -0.048557916 99525.794
0.13948491 -0.05 -0.04804407 99527.798
0.13613119 -0.05 -0.047524912 99530.013
0.13282772 -0.05 -0.047000529 99532.474
0.12957385 -0.05 -0.046471064 99534.972
0.12636889 -0.05 -0.045936599 99537.768
0.12321221 -0.05 -0.045397134 99540.824
0.12010315 -0.05 -0.044852825 99543.91
0.11704108 -0.05 -0.044303768 99547.151
0.11402537 -0.05 -0.043749951 99550.652
0.11105545 -0.05 -0.043191426 99554.417
0.10813067 -0.05 -0.042628297 99558.363
0.10525048 -0.05 -0.042060573 99562.712
0.10241428 -0.05 -0.041488322 99567.138
0.099621474 -0.05 -0.040911675 99571.746
0.096871547 -0.05 -0.040330552 99576.811
0.094163942 -0.05 -0.039744983 99581.934
0.091498105 -0.05 -0.039155087 99587.198
0.088873536 -0.05 -0.038560759 99592.983
0.086289713 -0.05 -0.037962041 99598.925
0.083746122 -0.05 -0.037358976 99605.349
0.08124227 -0.05 -0.036751568 99611.841
0.078777667 -0.05 -0.036139839 99618.643
0.076351871 -0.05 -0.035523662 99625.866
0.073964424 -0.05 -0.03490301 99633.579
0.071614857 -0.05 -0.034277934 99641.586
0.069302724 -0.05 -0.033648432 99649.89
0.067027627 -0.05 -0.033014373 99658.666
0.064789156 -0.05 -0.032375698 99667.777
0.062586902 -0.05 -0.031732384 99677.345
0.06042049 -0.05 -0.03108432 99687.45
0.058289558 -0.05 -0.030431406 99698.035
0.056193744 -0.05 -0.029773563 99709.119
0.054132712 -0.05 -0.029110672 99720.755
0.052106116 -0.05 -0.028442684 99732.775
0.050113673 -0.05 -0.027769395 99745.778
0.048155099 -0.05 -0.027090639 99759.289
0.046230096 -0.05 -0.026406338 99773.508
0.044338417 -0.05 -0.025716296 99788.417
0.042479837 -0.05 -0.025020316 99804.27
0.040654176 -0.05 -0.024318113 99821.158
0.038861243 -0.05 -0.023609483 99838.925
0.037100849 -0.05 -0.022894268 99857.569
0.035372874 -0.05 -0.022172175 99877.341
0.033677231 -0.05 -0.021442893 99898.227
0.032013859 -0.05 -0.020706103 99920.482
0.030382722 -0.05 -0.019961489 99944.042
0.028783829 -0.05 -0.019208697 99969.207
0.027217258 -0.05 -0.018447299 99996.016
0.025683095 -0.05 -0.017676916 100024.51
0.024181512 -0.05 -0.016897071 100055
0.022712743 -0.05 -0.016107257 100087.5
0.021277075 -0.05 -0.015306979 100122.26
0.019874917 -0.05 -0.014495625 100159.55
0.018506703 -0.05 -0.013672646 100199.29
0.017173041 -0.05 -0.012837342 100242.12
0.015874627 -0.05 -0.011988988 100287.72
0.014612246 -0.05 -0.011126874 100336.6
0.013386881 -0.05 -0.0102502 100389.52
0.012199697 -0.05 -0.0093581574 100446.79
0.01105205 -0.05 -0.0084499124 100507.77
0.0099455372 -0.05 -0.0075245398 100573.44
0.0088819502 -0.05 -0.0065810644 100644.06
0.0078633885 -0.05 -0.0056187215 100719.55
0.0068923756 -0.05 -0.0046367809 100799.8
0.0059716878 -0.05 -0.0036342736 100884.85
0.0051044112 -0.05 -0.0026106024 100973.77
0.0042942819 -0.05 -0.0015657608 101065.91
0.0035451829 -0.05 -0.0004995357 101159.75
0.0028611903 -0.05 0.00058772429 101253.03
0.0022469838 -0.05 0.0016945028 101342.61
0.0017070719 -0.05 0.0028191368 101423.1
0.0012456875 -0.05 0.0039589492 101491.14
0.00086658542 -0.05 0.005109743 101543.74
0.00057265992 -0.05 0.0062669937 101574.24
0.00036544142 -0.05 0.0074253278 101579.99
0.00024476136 -0.05 0.0085786892 101560.12
0.00020887223 -0.05 0.0097210798 101512.16
0.99624238 -0.05 -0.031187783 100150.7
0.98999762 -0.05 -0.03182718 100155.97
0.98375214 -0.05 -0.032459555 100131.45
0.97750595 -0.05 -0.033084934 100116.95
0.97125908 -0.05 -0.033703423 100100.89
0.96501155 -0.05 -0.034315185 100086.81
0.95876336 -0.05 -0.034920201 100073.39
0.95251454 -0.05 -0.035518535 100060.91
0.94626508 -0.05 -0.036110343 100049.1
0.94001503 -0.05 -0.03669571 100037.96
0.93376437 -0.05 -0.037274643 100027.41
0.92751312 -0.05 -0.0378472 100017.38
0.92126131 -0.05 -0.038413461 100007.82
0.91500892 -0.05 -0.038973459 99998.719
0.90875599 -0.05 -0.039527346 99989.996
0.90250253 -0.05 -0.040075122 99981.52
0.89624854 -0.05 -0.040616817 99973.485
0.88999403 -0.05 -0.041152569 99965.649
0.88373902 -0.05 -0.041682391 99958.197
0.8774835 -0.05 -0.042206226 99950.901
0.87122749 -0.05 -0.042724213 99943.878
0.86497101 -0.05 -0.043236421 99937.066
0.85871406 -0.05 -0.043742821 99930.527
0.85245665 -0.05 -0.0442435 99923.992
0.84619879 -0.05 -0.044738522 99917.711
0.83994048 -0.05 -0.045227872 99911.561
0.83368173 -0.05 -0.045711514 99905.66
0.82742255 -0.05 -0.046189626 99899.722
0.82116295 -0.05 -0.046662166 99894.068
0.81490293 -0.05 -0.047129089 99888.458
0.80864249 -0.05 -0.047590474 99883.06
0.80238166 -0.05 -0.048046332 99877.619
0.79612042 -0.05 -0.048496693 99872.367
0.78985879 -0.05 -0.048941514 99867.189
0.78359678 -0.05 -0.049380881 99862.096
0.77733438 -0.05 -0.04981476 99857.073
0.7710716 -0.05 -0.050243118 99852.144
0.76480845 -0.05 -0.050666018 99847.278
0.75854492 -0.05 -0.051083444 99842.502
0.75228105 -0.05 -0.051495387 99837.697
0.74601681 -0.05 -0.05190182 99833.004
0.73975221 -0.05 -0.052302726 99828.336
0.73348726 -0.05 -0.052698092 99823.76
0.72722196 -0.05 -0.053087883 99819.208
0.72095633 -0.05 -0.053472131 99814.699
0.71469035 -0.05 -0.053850867 99810.203
0.70842403 -0.05 -0.054223915 99805.858
0.70215739 -0.05 -0.054591328 99801.386
0.6958904 -0.05 -0.054953071 99797.081
0.68962309 -0.05 -0.05530905 99792.727
0.68335546 -0.05 -0.055659323 99788.452
0.67708751 -0.05 -0.05600379 99784.168
0.67081925 -0.05 -0.056342464 99779.885
0.66455065 -0.05 -0.056675226 99775.685
0.65828175 -0.05 -0.057001977 99771.52
0.65201255 -0.05 -0.057322803 99767.256
0.64574303 -0.05 -0.057637615 99763.068
0.63947321 -0.05 -0.057946249 99758.905
0.63320309 -0.05 -0.058248672 99754.774
0.62693268 -0.05 -0.058544885 99750.592
0.62066196 -0.05 -0.058834753 99746.501
0.61439095 -0.05 -0.05911819 99742.376
0.60811965 -0.05 -0.059395191 99738.272
0.60184807 -0.05 -0.059665615 99734.17
0.59557621 -0.05 -0.059929387 99730.068
0.58930406 -0.05 -0.060186426 99725.987
0.58303163 -0.05 -0.060436639 99721.883
0.57675893 -0.05 -0.06067991 99717.804
0.57048597 -0.05 -0.060916097 99713.75
0.56421275 -0.05 -0.061145166 99709.674
0.55793925 -0.05 -0.061366993 99705.637
0.55166551 -0.05 -0.061581419 99701.555
0.54539151 -0.05 -0.061788372 99697.463
0.53911726 -0.05 -0.061987688 99693.422
0.53284277 -0.05 -0.06217923 99689.375
0.52656805 -0.05 -0.062362927 99685.297
0.5202931 -0.05 -0.062538605 99681.249
0.51401793 -0.05 -0.062706124 99677.185
0.50774253 -0.05 -0.062865317 99673.18
0.50146693 -0.05 -0.063016045 99669.112
0.49519114 -0.05 -0.063158183 99665.065
0.48891514 -0.05 -0.063291537 99661.014
0.48263896 -0.05 -0.063415902 99657.025
0.47636261 -0.05 -0.063531155 99652.97
0.47008609 -0.05 -0.063637157 99648.931
0.46380942 -0.05 -0.063733656 99644.917
0.45753262 -0.05 -0.063820441 99640.941
0.45125568 -0.05 -0.06389735 99636.917
0.44497862 -0.05 -0.063964198 99632.92
0.43870147 -0.05 -0.06402076 99628.911
0.43242423 -0.05 -0.064066796 99624.958
0.42614692 -0.05 -0.064102097 99620.992
0.41986955 -0.05 -0.064126464 99617.034
0.41359216 -0.05 -0.064139648 99613.099
0.40731475 -0.05 -0.064141372 99609.207
0.40103735 -0.05 -0.064131413 99605.254
0.39475998 -0.05 -0.064109484 99601.402
0.38848266 -0.05 -0.064075278 99597.578
0.38220543 -0.05 -0.064028582 99593.756
0.37592831 -0.05 -0.063969154 99589.9
0.36965131 -0.05 -0.063896598 99586.185
0.36337449 -0.05 -0.063810593 99582.477
0.35709788 -0.05 -0.063710901 99578.82
0.3508215 -0.05 -0.063597183 99575.129
0.3445454 -0.05 -0.063469087 99571.508
0.33826961 -0.05 -0.063326225 99567.961
0.33199419 -0.05 -0.06316827 99564.426
0.32571919 -0.05 -0.062994833 99560.952
0.31944464 -0.05 -0.062805491 99557.625
0.3131706 -0.05 -0.062599856 99554.551
0.30689713 -0.05 -0.062377514 99551.251
0.30062429 -0.05 -0.062138035 99546.739
0.29959045 -0.05 0.0580122 99390.138
0.29395746 -0.05 0.058230781 99383.231
0.288405 -0.05 0.058431657 99375.824
0.28293197 -0.05 0.058615085 99368.661
0.27753725 -0.05 0.058781378 99361.535
0.27221976 -0.05 0.058930877 99354.537
0.26697843 -0.05 0.059063904 99347.607
0.26181221 -0.05 0.059180745 99340.816
0.25672006 -0.05 0.059281734 99333.999
0.25170094 -0.05 0.059367159 99327.334
0.24675385 -0.05 0.059437247 99320.766
0.2418778 -0.05 0.059492317 99314.299
0.2370718 -0.05 0.059532654 99307.897
0.2323349 -0.05 0.059558561 99301.529
0.22766611 -0.05 0.059570322 99295.271
0.22306452 -0.05 0.059568148 99289.161
0.2185292 -0.05 0.059552342 99282.998
0.21405923 -0.05 0.059523165 99277.021
0.20965372 -0.05 0.059480788 99271.171
0.20531177 -0.05 0.059425512 99265.392
0.20103252 -0.05 0.05935759 99259.741
0.19681509 -0.05 0.059277287 99254.037
0.19265866 -0.05 0.059184845 99248.441
0.18856237 -0.05 0.059080381 99243.029
0.18452541 -0.05 0.058964183 99237.602
0.18054696 -0.05 0.058836477 99232.384
0.17662623 -0.05 0.058697457 99227.181
0.17276242 -0.05 0.058547364 99222.08
0.16895476 -0.05 0.058386393 99216.996
0.16520248 -0.05 0.058214713 99212.103
0.16150483 -0.05 0.058032487 99207.296
0.15786107 -0.05 0.057839969 99202.522
0.15427046 -0.05 0.057637307 99197.908
0.15073229 -0.05 0.057424669 99193.257
0.14724586 -0.05 0.057202238 99188.742
0.14381045 -0.05 0.056970135 99184.332
0.14042538 -0.05 0.056728547 99180.03
0.13708999 -0.05 0.05647762 99175.871
0.1338036 -0.05 0.056217548 99171.684
0.13056554 -0.05 0.05594847 99167.696
0.12737519 -0.05 0.05567044 99163.889
0.12423189 -0.05 0.055383665 99159.993
0.12113504 -0.05 0.055088294 99156.186
0.11808401 -0.05 0.054784367 99152.518
0.1150782 -0.05 0.054471982 99148.989
0.11211703 -0.05 0.054151295 99145.524
0.10919989 -0.05 0.053822363 99142.343
0.10632623 -0.05 0.053485301 99139.106
0.10349548 -0.05 0.053140289 99135.931
0.10070707 -0.05 0.05278729 99133.06
0.097960481 -0.05 0.05242638 99130.175
0.09525516 -0.05 0.052057722 99127.347
0.092590604 -0.05 0.051681253 99124.863
0.089966295 -0.05 0.051297058 99122.352
0.087381725 -0.05 0.050905221 99120.112
0.084836401 -0.05 0.050505789 99117.773
0.082329838 -0.05 0.050098822 99115.681
0.079861584 -0.05 0.049684231 99113.933
0.077431182 -0.05 0.049262026 99112.438
0.075038167 -0.05 0.048832297 99110.939
0.072682097 -0.05 0.048395078 99109.554
0.070362562 -0.05 0.047950272 99108.4
0.068079148 -0.05 0.047497853 99107.339
0.065831447 -0.05 0.047037833 99106.515
0.063619077 -0.05 0.046570131 99106.079
0.061441667 -0.05 0.046094678 99106.021
0.059298851 -0.05 0.045611424 99106.335
0.057190285 -0.05 0.045120279 99106.913
0.055115618 -0.05 0.044621221 99107.528
0.053074553 -0.05 0.044114072 99108.651
0.051066793 -0.05 0.04359869 99109.955
0.049092033 -0.05 0.043075021 99111.827
0.047150013 -0.05 0.042542889 99114.167
0.045240492 -0.05 0.042002117 99117.19
0.043363265 -0.05 0.041452435 99120.926
0.041518128 -0.05 0.040893658 99124.905
0.039704878 -0.05 0.040325641 99129.125
0.03792337 -0.05 0.039748104 99134.191
0.036173495 -0.05 0.039160743 99140.342
0.034455164 -0.05 0.038563245 99147.704
0.032768314 -0.05 0.037955299 99155.98
0.031112928 -0.05 0.037336551 99165.187
0.029489045 -0.05 0.036706567 99175.749
0.027896723 -0.05 0.036064964 99188.027
0.026336092 -0.05 0.035411252 99201.771
0.024807345 -0.05 0.034744906 99217.476
0.023310724 -0.05 0.034065408 99235.103
0.02184659 -0.05 0.033372118 99254.438
0.020415328 -0.05 0.032664449 99275.589
0.019017488 -0.05 0.031941656 99299.99
0.017653703 -0.05 0.031202957 99327.543
0.016324699 -0.05 0.030447583 99359.062
0.015031386 -0.05 0.029674653 99394.952
0.01377486 -0.05 0.028883266 99436.015
0.012556408 -0.05 0.028072481 99482.691
0.01137754 -0.05 0.027241244 99536.858
0.010239964 -0.05 0.026388435 99599.328
0.0091457091 -0.05 0.025513119 99669.967
0.0080972303 -0.05 0.024614361 99748.76
0.0070972146 -0.05 0.023690967 99836.787
0.0061486886 -0.05 0.022742089 99935.23
0.0052553755 -0.05 0.021767412 100046.72
0.004421127 -0.05 0.020766405 100169.97
0.0036500348 -0.05 0.01973908 100305.46
0.0029468868 -0.05 0.018686563 100451.54
0.0023163135 -0.05 0.017610142 100606.2
0.0017627533 -0.05 0.016512134 100765.44
0.0012902936 -0.05 0.015396417 100924.24
0.00090219086 -0.05 0.014267259 101077.04
0.00060041236 -0.05 0.01312989 101218.64
0.00038528811 -0.05 0.01199036 101340.72
0.00025556979 -0.05 0.010854791 101438.23
0.99627939 -0.05 -0.030289193 100221.34
0.99010836 -0.05 -0.02913839 100221.16
0.98393605 -0.05 -0.027994526 100215.43
0.97776246 -0.05 -0.026857577 100213.08
0.97158762 -0.05 -0.025727436 100209.93
0.96541156 -0.05 -0.024603948 100207.32
0.95923429 -0.05 -0.023487127 100204.01
0.95305584 -0.05 -0.022376913 100200.83
0.94687623 -0.05 -0.021273152 100197.09
0.94069548 -0.05 -0.020175759 100193.3
0.93451361 -0.05 -0.019084731 100188.58
0.92833063 -0.05 -0.018000008 100183.76
0.92214655 -0.05 -0.016921513 100178.23
0.9159614 -0.05 -0.015849213 100172.53
0.90977521 -0.05 -0.014782957 100165.27
0.90358798 -0.05 -0.013722749 100158.15
0.89739972 -0.05 -0.012668558 100150.18
0.89121046 -0.05 -0.011620248 100142.15
0.88502021 -0.05 -0.010577806 100133.11
0.87882897 -0.05 -0.0095412883 100124.18
0.87263676 -0.05 -0.0085105588 100114.89
0.86644359 -0.05 -0.0074855501 100105.64
0.86024948 -0.05 -0.0064662908 100095.74
0.85405444 -0.05 -0.0054526951 100085.96
0.84785849 -0.05 -0.0044447009 100076.06
0.84166163 -0.05 -0.0034423221 100066.21
0.83546385 -0.05 -0.0024455951 100056.38
0.82926519 -0.05 -0.0014543454 100046.47
0.82306566 -0.05 -0.00046861321 100036.78
0.81686525 -0.05 0.00051155491 100027.07
0.81066397 -0.05 0.001486238 100017.67
0.80446182 -0.05 0.0024554455 100008.18
0.79825884 -0.05 0.0034192086 99998.927
0.792055 -0.05 0.0043774821 99989.711
0.78585033 -0.05 0.0053303521 99980.752
0.77964483 -0.05 0.0062777834 99971.852
0.77343849 -0.05 0.0072197443 99963.11
0.76723133 -0.05 0.0081562954 99954.397
0.76102336 -0.05 0.0090874227 99946.058
0.75481458 -0.05 0.010013115 99937.667
0.74860499 -0.05 0.010933345 99929.468
0.74239458 -0.05 0.011848097 99921.246
0.73618337 -0.05 0.012757356 99913.329
0.72997135 -0.05 0.013661087 99905.383
0.72375854 -0.05 0.014559322 99897.541
0.71754494 -0.05 0.015452092 99889.637
0.71133053 -0.05 0.016339223 99882.126
0.70511533 -0.05 0.017220763 99874.401
0.69889932 -0.05 0.01809668 99866.903
0.69268251 -0.05 0.01896688 99859.324
0.68646492 -0.05 0.019831418 99851.987
0.68024653 -0.05 0.020690198 99844.552
0.67402735 -0.05 0.02154323 99837.087
0.66780737 -0.05 0.022390396 99829.698
0.66158658 -0.05 0.023231598 99822.545
0.65536499 -0.05 0.024066919 99815.222
0.6491426 -0.05 0.024896273 99808.008
0.64291941 -0.05 0.025719495 99800.806
0.63669539 -0.05 0.026536551 99793.698
0.63047058 -0.05 0.027347443 99786.508
0.62424495 -0.05 0.028152036 99779.428
0.61801849 -0.05 0.028950242 99772.29
0.61179122 -0.05 0.02974206 99765.245
0.60556312 -0.05 0.030527345 99758.174
0.59933419 -0.05 0.031306026 99751.091
0.59310444 -0.05 0.032078018 99743.994
0.58687383 -0.05 0.032843231 99736.906
0.58064239 -0.05 0.033601547 99729.822
0.5744101 -0.05 0.034352826 99722.738
0.56817696 -0.05 0.035097032 99715.581
0.56194297 -0.05 0.035834042 99708.528
0.5557081 -0.05 0.036563698 99701.427
0.54947238 -0.05 0.037285926 99694.292
0.54323578 -0.05 0.038000565 99687.195
0.5369983 -0.05 0.038707475 99680.093
0.53075994 -0.05 0.039406585 99672.941
0.52452069 -0.05 0.040097724 99665.79
0.51828055 -0.05 0.040780749 99658.591
0.51203951 -0.05 0.041455493 99651.479
0.50579757 -0.05 0.042121819 99644.251
0.49955471 -0.05 0.042779601 99636.992
0.49331094 -0.05 0.043428643 99629.691
0.48706625 -0.05 0.044068743 99622.45
0.48082065 -0.05 0.044699775 99615.099
0.4745741 -0.05 0.045321601 99607.706
0.46832664 -0.05 0.045933971 99600.295
0.46207823 -0.05 0.04653667 99592.94
0.45582888 -0.05 0.047129536 99585.513
0.44957859 -0.05 0.047712386 99578.069
0.44332734 -0.05 0.048284992 99570.586
0.43707515 -0.05 0.048847116 99563.119
0.43082201 -0.05 0.049398546 99555.602
0.42456791 -0.05 0.049939084 99548.046
0.41831287 -0.05 0.050468479 99540.454
0.41205686 -0.05 0.050986455 99532.882
0.40579991 -0.05 0.051492785 99525.176
0.399542 -0.05 0.051987185 99517.484
0.39328314 -0.05 0.052469345 99509.77
0.38702333 -0.05 0.052939049 99502.008
0.38076258 -0.05 0.053396056 99494.142
0.37450089 -0.05 0.053839968 99486.332
0.36823826 -0.05 0.054270463 99478.451
0.3619747 -0.05 0.0546873 99470.572
0.35571023 -0.05 0.05509014 99462.654
0.34944485 -0.05 0.055478628 99454.736
0.34317858 -0.05 0.055852374 99446.807
0.33691143 -0.05 0.056211047 99438.821
0.33064341 -0.05 0.056554257 99430.831
0.32437455 -0.05 0.056881578 99422.831
0.31810485 -0.05 0.057192619 99414.619
0.31183435 -0.05 0.057486964 99406.045
0.30556306 -0.05 0.057764177 99398.655
