# wallShearStress  FACE_DATA 448
# x y z  wallShearStress_x wallShearStress_y wallShearStress_z
0.29465152 -0.05 -0.061894028 -7.080662 -4.322654e-17 0.3094597
0.28901963 -0.05 -0.061648608 -7.1152441 -2.3983338e-16 0.32840177
0.28346946 -0.05 -0.061392166 -7.2334124 3.8203351e-16 0.35349705
0.27799988 -0.05 -0.061124868 -7.3424019 -2.8698171e-16 0.37863758
0.27260976 -0.05 -0.060846934 -7.4528005 4.257914e-16 0.40455724
0.26729799 -0.05 -0.060558614 -7.5630446 2.4639536e-17 0.43134851
0.26206347 -0.05 -0.06026014 -7.6732741 3.4420861e-16 0.45889218
0.25690514 -0.05 -0.059951713 -7.783329 2.9457567e-16 0.48733558
0.25182193 -0.05 -0.059633578 -7.8931094 -2.2315449e-16 0.51646535
0.24681279 -0.05 -0.05930594 -8.0027049 -1.4361726e-16 0.54663351
0.2418767 -0.05 -0.058968939 -8.1113251 -9.6659272e-18 0.57751231
0.23701264 -0.05 -0.058622815 -8.2194206 -2.449558e-16 0.60923533
0.23221961 -0.05 -0.058267768 -8.3266327 -4.0253811e-17 0.64174433
0.22749661 -0.05 -0.057904021 -8.433293 -6.1560827e-17 0.67511639
0.22284268 -0.05 -0.057531779 -8.5397578 6.4026555e-17 0.70943271
0.21825685 -0.05 -0.057151175 -8.6454233 2.9045816e-16 0.74464838
0.21373819 -0.05 -0.056762435 -8.7502292 1.1775824e-17 0.7805819
0.20928577 -0.05 -0.056365745 -8.8541891 -3.9935548e-16 0.81759293
0.20489866 -0.05 -0.0559612 -8.9566809 -6.6304004e-17 0.85537516
0.20057596 -0.05 -0.055549028 -9.0583597 -3.9730652e-16 0.89397228
0.19631679 -0.05 -0.055129408 -9.1589895 -3.4240012e-16 0.93347971
0.19212027 -0.05 -0.054702535 -9.258686 -4.0300373e-16 0.97378239
0.18798551 -0.05 -0.054268578 -9.3576007 1.1213625e-17 1.0152267
0.18391169 -0.05 -0.053827587 -9.4548669 1.2005417e-16 1.0575418
0.17989796 -0.05 -0.053379781 -9.5513089 1.6097846e-16 1.1006265
0.17594349 -0.05 -0.052925318 -9.6471935 -3.8248236e-17 1.1449012
0.17204747 -0.05 -0.052464326 -9.7421437 3.4312526e-16 1.1899667
0.1682091 -0.05 -0.05199698 -9.8367834 6.4087226e-16 1.2362055
0.16442757 -0.05 -0.051523411 -9.9305934 1.3161484e-16 1.2834036
0.16070212 -0.05 -0.051043723 -10.023184 5.4053039e-17 1.3316963
0.15703198 -0.05 -0.050558017 -10.113835 3.1550303e-16 1.3806874
0.15341639 -0.05 -0.050066487 -10.20279 2.8100605e-17 1.4306041
0.14985462 -0.05 -0.049569218 -10.289151 -5.1859859e-16 1.4814781
0.14634593 -0.05 -0.049066321 -10.373053 5.2510347e-16 1.5331081
0.14288959 -0.05 -0.048557916 -10.454894 -4.2064044e-17 1.5858649
0.13948491 -0.05 -0.04804407 -10.534199 -3.7904013e-16 1.6394748
0.13613119 -0.05 -0.047524912 -10.611674 -2.5168909e-16 1.6940432
0.13282772 -0.05 -0.047000529 -10.687855 4.734934e-16 1.7496414
0.12957385 -0.05 -0.046471064 -10.76293 4.3936611e-16 1.8062675
0.12636889 -0.05 -0.045936599 -10.836296 1.464639e-16 1.8642477
0.12321221 -0.05 -0.045397134 -10.906759 -4.993535e-16 1.9229265
0.12010315 -0.05 -0.044852825 -10.975431 1.6750561e-16 1.9825599
0.11704108 -0.05 -0.044303768 -11.042805 3.9579702e-16 2.0437662
0.11402537 -0.05 -0.043749951 -11.107975 -2.0379669e-16 2.1061476
0.11105545 -0.05 -0.043191426 -11.170524 2.9475522e-17 2.1694054
0.10813067 -0.05 -0.042628297 -11.230332 -1.5927354e-16 2.2336562
0.10525048 -0.05 -0.042060573 -11.286665 2.7508058e-16 2.2989298
0.10241428 -0.05 -0.041488322 -11.340077 2.4004893e-16 2.3648703
0.099621474 -0.05 -0.040911675 -11.391037 -1.8980524e-16 2.4323229
0.096871547 -0.05 -0.040330552 -11.43744 8.134688e-16 2.5006816
0.094163942 -0.05 -0.039744983 -11.479313 -4.9444049e-17 2.5695276
0.091498105 -0.05 -0.039155087 -11.517713 1.7105056e-16 2.6399678
0.088873536 -0.05 -0.038560759 -11.550324 -5.6175757e-16 2.7112258
0.086289713 -0.05 -0.037962041 -11.576565 3.5654022e-16 2.7825745
0.083746122 -0.05 -0.037358976 -11.597063 5.9293063e-16 2.8547871
0.08124227 -0.05 -0.036751568 -11.612441 3.2606285e-16 2.9275092
0.078777667 -0.05 -0.036139839 -11.624519 7.5801021e-18 3.0018486
0.076351871 -0.05 -0.035523662 -11.632039 1.7188812e-16 3.0768876
0.073964424 -0.05 -0.03490301 -11.634904 2.4056436e-16 3.1526719
0.071614857 -0.05 -0.034277934 -11.635337 -3.0587952e-16 3.2302572
0.069302724 -0.05 -0.033648432 -11.635904 -6.0168639e-16 3.3106221
0.067027627 -0.05 -0.033014373 -11.63201 -8.3577214e-16 3.3923835
0.064789156 -0.05 -0.032375698 -11.620963 -4.903947e-18 3.4749437
0.062586902 -0.05 -0.031732384 -11.601261 -5.9620739e-16 3.558358
0.06042049 -0.05 -0.03108432 -11.571227 4.9501021e-16 3.6426445
0.058289558 -0.05 -0.030431406 -11.530568 -3.8507107e-16 3.7282189
0.056193744 -0.05 -0.029773563 -11.48404 8.6811752e-16 3.8169071
0.054132712 -0.05 -0.029110672 -11.440666 2.1107191e-16 3.9109866
0.052106116 -0.05 -0.028442684 -11.40181 6.0944953e-16 4.0115622
0.050113673 -0.05 -0.027769395 -11.367652 -4.8366856e-16 4.1190559
0.048155099 -0.05 -0.027090639 -11.343546 5.757051e-16 4.2341169
0.046230096 -0.05 -0.026406338 -11.323412 6.3939512e-17 4.3559459
0.044338417 -0.05 -0.025716296 -11.301967 -9.1989966e-16 4.4833361
0.042479837 -0.05 -0.025020316 -11.275446 -1.965539e-17 4.6163426
0.040654176 -0.05 -0.024318113 -11.239275 4.768342e-16 4.7535827
0.038861243 -0.05 -0.023609483 -11.191933 9.0317284e-17 4.8951104
0.037100849 -0.05 -0.022894268 -11.132614 3.3814282e-16 5.0422637
0.035372874 -0.05 -0.022172175 -11.060723 -1.4368534e-15 5.1950871
0.033677231 -0.05 -0.021442893 -10.979249 -4.2259798e-16 5.3538589
0.032013859 -0.05 -0.020706103 -10.893243 -4.3949212e-16 5.5195201
0.030382722 -0.05 -0.019961489 -10.804634 4.6236131e-16 5.6923027
0.028783829 -0.05 -0.019208697 -10.714297 1.0340352e-15 5.8721479
0.027217258 -0.05 -0.018447299 -10.618847 -7.8324229e-17 6.0571148
0.025683095 -0.05 -0.017676916 -10.514418 2.9778999e-17 6.2461031
0.024181512 -0.05 -0.016897071 -10.395804 -1.4880486e-15 6.4364041
0.022712743 -0.05 -0.016107257 -10.257575 -5.4037592e-16 6.6250905
0.021277075 -0.05 -0.015306979 -10.096019 4.2997653e-17 6.8098673
0.019874917 -0.05 -0.014495625 -9.9070272 -7.0187599e-17 6.9867248
0.018506703 -0.05 -0.013672646 -9.6877266 -1.9269389e-16 7.1532697
0.017173041 -0.05 -0.012837342 -9.4358282 -4.0399511e-18 7.3044333
0.015874627 -0.05 -0.011988988 -9.149313 -8.5362951e-16 7.4368458
0.014612246 -0.05 -0.011126874 -8.8293795 -2.9777513e-16 7.5479244
0.013386881 -0.05 -0.0102502 -8.4688009 -1.2618374e-15 7.6293649
0.012199697 -0.05 -0.0093581574 -8.0641386 3.7059215e-16 7.6725264
0.01105205 -0.05 -0.0084499124 -7.614567 -4.5972889e-16 7.6766716
0.0099455372 -0.05 -0.0075245398 -7.1219476 5.8695906e-17 7.6317883
0.0088819502 -0.05 -0.0065810644 -6.5836073 -8.7882328e-17 7.5290024
0.0078633885 -0.05 -0.0056187215 -6.0042618 -3.6318586e-16 7.3592601
0.0068923756 -0.05 -0.0046367809 -5.3889736 -2.1121164e-16 7.1131431
0.0059716878 -0.05 -0.0036342736 -4.7458984 -4.4676013e-16 6.7804182
0.0051044112 -0.05 -0.0026106024 -4.085401 -7.0049764e-17 6.35517
0.0042942819 -0.05 -0.0015657608 -3.4214997 1.5330816e-16 5.8326993
0.0035451829 -0.05 -0.0004995357 -2.7704043 2.7164021e-16 5.2106237
0.0028611903 -0.05 0.00058772429 -2.1505026 2.3195717e-16 4.4933131
0.0022469838 -0.05 0.0016945028 -1.579175 3.0152582e-16 3.6908279
0.0017070719 -0.05 0.0028191368 -1.0621756 -5.1824704e-17 2.8126215
0.0012456875 -0.05 0.0039589492 -0.65035279 -4.6880168e-17 1.8902414
0.00086658542 -0.05 0.005109743 -0.37457192 -2.0373951e-16 1.0418949
0.00057265992 -0.05 0.0062669937 -0.21292257 -9.6232358e-17 0.41126803
0.00036544142 -0.05 0.0074253278 -0.13928792 -5.4631124e-17 -0.15747118
0.00024476136 -0.05 0.0085786892 -0.1031491 1.1262326e-17 -0.78818365
0.00020887223 -0.05 0.0097210798 -0.14578983 4.023425e-18 -1.5471314
0.99624238 -0.05 -0.031187783 -0.3374359 1.2371543e-16 -0.095472849
0.98999762 -0.05 -0.03182718 -0.69572744 -6.708739e-17 -0.064783856
0.98375214 -0.05 -0.032459555 -0.66104785 4.7106004e-16 -0.066950764
0.97750595 -0.05 -0.033084934 -0.73603835 -4.541155e-16 -0.07344272
0.97125908 -0.05 -0.033703423 -0.77232292 7.0998433e-16 -0.076253305
0.96501155 -0.05 -0.034315185 -0.81679539 -1.3684609e-16 -0.079695533
0.95876336 -0.05 -0.034920201 -0.8554055 2.8731217e-16 -0.082493826
0.95251454 -0.05 -0.035518535 -0.89285141 2.7389249e-16 -0.085112937
0.94626508 -0.05 -0.036110343 -0.92844798 2.0846173e-16 -0.087493471
0.94001503 -0.05 -0.03669571 -0.96268079 2.5087054e-16 -0.089674098
0.93376437 -0.05 -0.037274643 -0.99588572 -3.78586e-16 -0.091695828
0.92751312 -0.05 -0.0378472 -1.0279411 3.402723e-17 -0.093560889
0.92126131 -0.05 -0.038413461 -1.0594693 3.6872015e-16 -0.095314086
0.91500892 -0.05 -0.038973459 -1.0901035 -1.0024296e-16 -0.096943959
0.90875599 -0.05 -0.039527346 -1.1204274 -4.63068e-16 -0.09852632
0.90250253 -0.05 -0.040075122 -1.1510095 -2.280165e-16 -0.10008652
0.89624854 -0.05 -0.040616817 -1.1811437 8.7296237e-18 -0.10153539
0.88999403 -0.05 -0.041152569 -1.2120619 2.4736556e-16 -0.10305184
0.88373902 -0.05 -0.041682391 -1.2436456 3.8177171e-16 -0.10455585
0.8774835 -0.05 -0.042206226 -1.2762833 1.0031105e-16 -0.10612764
0.87122749 -0.05 -0.042724213 -1.3093424 -6.6137702e-16 -0.10764587
0.86497101 -0.05 -0.043236421 -1.3427609 -4.1349344e-16 -0.109104
0.85871406 -0.05 -0.043742821 -1.3756448 1.7984325e-16 -0.1104756
0.85245665 -0.05 -0.0442435 -1.4088534 3.5279569e-16 -0.11185977
0.84619879 -0.05 -0.044738522 -1.4417356 2.3593275e-16 -0.11309797
0.83994048 -0.05 -0.045227872 -1.4745201 -3.0593569e-16 -0.1142726
0.83368173 -0.05 -0.045711514 -1.5068143 3.0981266e-16 -0.11536438
0.82742255 -0.05 -0.046189626 -1.5394675 -1.8127337e-16 -0.11648043
0.82116295 -0.05 -0.046662166 -1.572226 -2.6317415e-17 -0.11744553
0.81490293 -0.05 -0.047129089 -1.6047748 -3.8407221e-16 -0.11838465
0.80864249 -0.05 -0.047590474 -1.6374899 3.9253594e-16 -0.11924022
0.80238166 -0.05 -0.048046332 -1.6706125 -8.2923712e-17 -0.1200447
0.79612042 -0.05 -0.048496693 -1.703374 4.8036508e-17 -0.1207174
0.78985879 -0.05 -0.048941514 -1.736107 -1.9852217e-16 -0.12147614
0.78359678 -0.05 -0.049380881 -1.7691395 -6.5697978e-18 -0.12221554
0.77733438 -0.05 -0.04981476 -1.8027303 5.7076333e-17 -0.12292262
0.7710716 -0.05 -0.050243118 -1.8363694 -2.0653193e-16 -0.1235848
0.76480845 -0.05 -0.050666018 -1.8704606 -4.4666987e-16 -0.12421969
0.75854492 -0.05 -0.051083444 -1.9048288 -1.0472782e-17 -0.12481805
0.75228105 -0.05 -0.051495387 -1.9398938 -3.1254546e-16 -0.12541644
0.74601681 -0.05 -0.05190182 -1.9752545 1.9653963e-16 -0.12593013
0.73975221 -0.05 -0.052302726 -2.011046 1.904991e-17 -0.1264151
0.73348726 -0.05 -0.052698092 -2.047209 2.5704472e-17 -0.12684457
0.72722196 -0.05 -0.053087883 -2.0838612 3.8883508e-16 -0.12725388
0.72095633 -0.05 -0.053472131 -2.1209542 -6.5606454e-17 -0.12762431
0.71469035 -0.05 -0.053850867 -2.1588359 -1.017749e-16 -0.12794632
0.70842403 -0.05 -0.054223915 -2.1970236 -1.0313493e-16 -0.12818501
0.70215739 -0.05 -0.054591328 -2.2358134 -1.6468822e-16 -0.12845887
0.6958904 -0.05 -0.054953071 -2.2754203 2.8707046e-16 -0.12859293
0.68962309 -0.05 -0.05530905 -2.3152403 2.1227385e-17 -0.12873082
0.68335546 -0.05 -0.055659323 -2.3559244 6.7074843e-16 -0.12879186
0.67708751 -0.05 -0.05600379 -2.3972047 -5.542915e-16 -0.12881515
0.67081925 -0.05 -0.056342464 -2.4392952 -7.1460991e-16 -0.12877684
0.66455065 -0.05 -0.056675226 -2.4820924 1.4903748e-16 -0.12863304
0.65828175 -0.05 -0.057001977 -2.5251884 -1.5361933e-16 -0.1284592
0.65201255 -0.05 -0.057322803 -2.569446 -2.0275376e-16 -0.12826879
0.64574303 -0.05 -0.057637615 -2.6146164 -1.2011667e-16 -0.12793249
0.63947321 -0.05 -0.057946249 -2.6602784 -9.3441412e-18 -0.12751927
0.63320309 -0.05 -0.058248672 -2.7065594 -1.9456958e-16 -0.12703708
0.62693268 -0.05 -0.058544885 -2.7538882 4.8372701e-17 -0.12648877
0.62066196 -0.05 -0.058834753 -2.8020172 -1.7011641e-16 -0.12579325
0.61439095 -0.05 -0.05911819 -2.8508258 1.0111209e-17 -0.1250497
0.60811965 -0.05 -0.059395191 -2.9007326 -1.6186774e-16 -0.12419835
0.60184807 -0.05 -0.059665615 -2.9515815 6.9782629e-17 -0.12323902
0.59557621 -0.05 -0.059929387 -3.0032244 2.380309e-17 -0.12217251
0.58930406 -0.05 -0.060186426 -3.0559202 -3.2089057e-17 -0.12096937
0.58303163 -0.05 -0.060436639 -3.1095756 -4.8774689e-17 -0.11966068
0.57675893 -0.05 -0.06067991 -3.1644223 -2.2113072e-16 -0.11819205
0.57048597 -0.05 -0.060916097 -3.219993 -7.9686124e-17 -0.1165965
0.56421275 -0.05 -0.061145166 -3.2766667 1.7251302e-16 -0.11487658
0.55793925 -0.05 -0.061366993 -3.3344132 9.5676745e-18 -0.1129729
0.55166551 -0.05 -0.061581419 -3.3932606 7.7108241e-17 -0.11092797
0.54539151 -0.05 -0.061788372 -3.4532854 5.251319e-17 -0.10870323
0.53911726 -0.05 -0.061987688 -3.5144529 -1.3100814e-16 -0.10625839
0.53284277 -0.05 -0.06217923 -3.5765286 8.6668726e-17 -0.10366419
0.52656805 -0.05 -0.062362927 -3.6400754 1.7743658e-17 -0.10086839
0.5202931 -0.05 -0.062538605 -3.7047914 -6.0324946e-17 -0.097834839
0.51401793 -0.05 -0.062706124 -3.7707327 2.2717509e-16 -0.094590813
0.50774253 -0.05 -0.062865317 -3.8378247 8.1838707e-17 -0.09109089
0.50146693 -0.05 -0.063016045 -3.9061647 -1.9681391e-16 -0.087393841
0.49519114 -0.05 -0.063158183 -3.975976 1.8104975e-17 -0.083392508
0.48891514 -0.05 -0.063291537 -4.0471141 9.5112615e-19 -0.079108885
0.48263896 -0.05 -0.063415902 -4.1193857 -2.0879748e-17 -0.074530804
0.47636261 -0.05 -0.063531155 -4.1929632 1.3721609e-16 -0.069709628
0.47008609 -0.05 -0.063637157 -4.2681751 -1.1835978e-17 -0.064516449
0.46380942 -0.05 -0.063733656 -4.3447626 3.239716e-17 -0.058965854
0.45753262 -0.05 -0.063820441 -4.4226174 2.2584433e-17 -0.053080744
0.45125568 -0.05 -0.06389735 -4.501978 -7.9156212e-18 -0.04685997
0.44497862 -0.05 -0.063964198 -4.5828168 9.2079938e-18 -0.04021416
0.43870147 -0.05 -0.06402076 -4.665225 -1.2177793e-17 -0.033191517
0.43242423 -0.05 -0.064066796 -4.7490757 -1.7895267e-18 -0.025914732
0.42614692 -0.05 -0.064102097 -4.8343858 1.7624711e-18 -0.018073745
0.41986955 -0.05 -0.064126464 -4.9212454 -4.2123017e-18 -0.0093253398
0.41359216 -0.05 -0.064139648 -5.0097043 -3.8439532e-18 -0.00034826889
0.40731475 -0.05 -0.064141372 -5.0994748 1.6037163e-18 0.0092976862
0.40103735 -0.05 -0.064131413 -5.1909407 4.3625102e-18 0.019723098
0.39475998 -0.05 -0.064109484 -5.2842032 -1.4737013e-17 0.030051446
0.38848266 -0.05 -0.064075278 -5.3788339 -1.7343009e-17 0.041037845
0.38220543 -0.05 -0.064028582 -5.475112 1.5659289e-17 0.052801026
0.37592831 -0.05 -0.063969154 -5.5733631 7.2792368e-18 0.065307416
0.36965131 -0.05 -0.063896598 -5.6731343 1.2471423e-17 0.078623572
0.36337449 -0.05 -0.063810593 -5.7741784 -9.993953e-18 0.09256607
0.35709788 -0.05 -0.063710901 -5.8770258 5.3671762e-17 0.10729244
0.3508215 -0.05 -0.063597183 -5.9816315 -5.1174991e-17 0.12282566
0.3445454 -0.05 -0.063469087 -6.0878812 1.1037687e-16 0.13927307
0.33826961 -0.05 -0.063326225 -6.1955955 -6.5554936e-17 0.15660448
0.33199419 -0.05 -0.06316827 -6.3050472 3.0069553e-17 0.17483339
0.32571919 -0.05 -0.062994833 -6.4162943 2.8900613e-16 0.19410795
0.31944464 -0.05 -0.062805491 -6.5283794 -3.36572e-16 0.21437053
0.3131706 -0.05 -0.062599856 -6.6408953 2.786243e-18 0.23578554
0.30689713 -0.05 -0.062377514 -6.7584554 -4.0127405e-17 0.25889336
0.30062429 -0.05 -0.062138035 -6.9437513 2.585826e-16 0.28565625
0.29959045 -0.05 0.0580122 -7.1966756 -2.1118923e-16 0.28547508
0.29395746 -0.05 0.058230781 -7.2471785 2.5441146e-16 0.26839817
0.288405 -0.05 0.058431657 -7.2354413 -1.7530279e-16 0.24887713
0.28293197 -0.05 0.058615085 -7.2281704 -4.4382683e-17 0.22927254
0.27753725 -0.05 0.058781378 -7.2210948 -7.7511026e-17 0.20961874
0.27221976 -0.05 0.058930877 -7.2154805 -2.8592677e-17 0.18980175
0.26697843 -0.05 0.059063904 -7.2109182 9.5757878e-17 0.16990957
0.26181221 -0.05 0.059180745 -7.2075749 1.2480354e-16 0.14981083
0.25672006 -0.05 0.059281734 -7.2056109 7.7080751e-17 0.1296998
0.25170094 -0.05 0.059367159 -7.2052192 -1.7161621e-18 0.10935621
0.24675385 -0.05 0.059437247 -7.2056064 -1.6103942e-17 0.089336254
0.2418778 -0.05 0.059492317 -7.2069961 2.6456549e-17 0.069385153
0.2370718 -0.05 0.059532654 -7.2090946 -3.4604717e-17 0.048109642
0.2323349 -0.05 0.059558561 -7.2119541 -2.1495297e-17 0.025869697
0.22766611 -0.05 0.059570322 -7.2160938 -8.3865484e-19 0.0040295209
0.22306452 -0.05 0.059568148 -7.2209673 2.9856594e-18 -0.018454517
0.2185292 -0.05 0.059552342 -7.2270669 1.4351451e-17 -0.04142706
0.21405923 -0.05 0.059523165 -7.23497 -4.8386805e-17 -0.062609316
0.20965372 -0.05 0.059480788 -7.2432009 -2.6057861e-17 -0.084477662
0.20531177 -0.05 0.059425512 -7.252303 -6.8648882e-17 -0.10691673
0.20103252 -0.05 0.05935759 -7.2624546 6.0500518e-17 -0.13006178
0.19681509 -0.05 0.059277287 -7.2739868 -2.2588677e-17 -0.15343415
0.19265866 -0.05 0.059184845 -7.2873475 5.5007979e-17 -0.17738673
0.18856237 -0.05 0.059080381 -7.3014121 1.0970975e-16 -0.20173155
0.18452541 -0.05 0.058964183 -7.3164604 -1.1105947e-16 -0.22630559
0.18054696 -0.05 0.058836477 -7.3329056 -1.41619e-16 -0.25148581
0.17662623 -0.05 0.058697457 -7.3500703 -7.7170509e-17 -0.27693565
0.17276242 -0.05 0.058547364 -7.368857 -4.2571722e-17 -0.30295758
0.16895476 -0.05 0.058386393 -7.3888792 -2.1509383e-17 -0.32946539
0.16520248 -0.05 0.058214713 -7.4100618 3.7549432e-17 -0.35659169
0.16150483 -0.05 0.058032487 -7.4317599 1.2581434e-18 -0.38407086
0.15786107 -0.05 0.057839969 -7.4546753 -2.6386234e-16 -0.41212833
0.15427046 -0.05 0.057637307 -7.4785903 3.8540196e-17 -0.44084224
0.15073229 -0.05 0.057424669 -7.5033931 -1.3161779e-16 -0.47006647
0.14724586 -0.05 0.057202238 -7.5295292 -2.2769302e-17 -0.50009871
0.14381045 -0.05 0.056970135 -7.5562534 -1.8669682e-16 -0.53070889
0.14042538 -0.05 0.056728547 -7.5838064 1.6757505e-17 -0.5619873
0.13708999 -0.05 0.05647762 -7.6122397 8.4563106e-17 -0.59393203
0.1338036 -0.05 0.056217548 -7.6419394 -2.1401891e-16 -0.62661485
0.13056554 -0.05 0.05594847 -7.6731009 -1.8157572e-16 -0.66035232
0.12737519 -0.05 0.05567044 -7.7044837 -2.5336297e-16 -0.6946472
0.12423189 -0.05 0.055383665 -7.7372804 -1.0052918e-16 -0.72973717
0.12113504 -0.05 0.055088294 -7.7722491 -1.6061146e-16 -0.76614129
0.11808401 -0.05 0.054784367 -7.8081729 -1.6100722e-16 -0.80352915
0.1150782 -0.05 0.054471982 -7.8447436 -6.3884868e-17 -0.84178156
0.11211703 -0.05 0.054151295 -7.8820013 -6.7297418e-17 -0.8810506
0.10919989 -0.05 0.053822363 -7.9193607 -8.8605904e-17 -0.92128439
0.10632623 -0.05 0.053485301 -7.9564618 4.4170984e-16 -0.96222574
0.10349548 -0.05 0.053140289 -7.9948899 3.687363e-16 -1.0047619
0.10070707 -0.05 0.05278729 -8.0333749 4.774193e-17 -1.0484644
0.097960481 -0.05 0.05242638 -8.071822 4.2356053e-16 -1.0930506
0.09525516 -0.05 0.052057722 -8.1121599 -3.8749308e-16 -1.1395113
0.092590604 -0.05 0.051681253 -8.1531374 -5.9305033e-16 -1.1873634
0.089966295 -0.05 0.051297058 -8.194214 -1.5803353e-16 -1.2362903
0.087381725 -0.05 0.050905221 -8.2369753 3.7904059e-16 -1.2870488
0.084836401 -0.05 0.050505789 -8.2807857 1.401251e-16 -1.3394068
0.082329838 -0.05 0.050098822 -8.3267744 -7.0274711e-16 -1.39423
0.079861584 -0.05 0.049684231 -8.3722937 2.8244694e-16 -1.4504922
0.077431182 -0.05 0.049262026 -8.4171502 -2.1467835e-16 -1.5079748
0.075038167 -0.05 0.048832297 -8.462253 -2.1124292e-16 -1.5672235
0.072682097 -0.05 0.048395078 -8.5081314 -3.0369589e-16 -1.6289522
0.070362562 -0.05 0.047950272 -8.5534703 4.6510123e-16 -1.6927369
0.068079148 -0.05 0.047497853 -8.5984445 -1.1547034e-17 -1.7586781
0.065831447 -0.05 0.047037833 -8.6436215 7.136735e-16 -1.8273413
0.063619077 -0.05 0.046570131 -8.6882159 8.5669218e-16 -1.8984598
0.061441667 -0.05 0.046094678 -8.732144 3.3366981e-19 -1.9719318
0.059298851 -0.05 0.045611424 -8.7757209 -5.0731552e-16 -2.0479218
0.057190285 -0.05 0.045120279 -8.8186767 1.4723357e-16 -2.1265326
0.055115618 -0.05 0.044621221 -8.8624429 -2.9050733e-16 -2.2089894
0.053074553 -0.05 0.044114072 -8.9076194 7.5465703e-16 -2.2956394
0.051066793 -0.05 0.04359869 -8.9524101 -5.1367993e-16 -2.3856873
0.049092033 -0.05 0.043075021 -8.9984832 7.9850748e-16 -2.4803381
0.047150013 -0.05 0.042542889 -9.0429507 2.5273225e-16 -2.5788543
0.045240492 -0.05 0.042002117 -9.0849651 5.34835e-17 -2.6815144
0.043363265 -0.05 0.041452435 -9.1230597 1.6839019e-18 -2.7875384
0.041518128 -0.05 0.040893658 -9.158032 9.9989022e-16 -2.8981329
0.039704878 -0.05 0.040325641 -9.1928306 -2.8599435e-16 -3.0161941
0.03792337 -0.05 0.039748104 -9.2267361 -6.505694e-16 -3.1414991
0.036173495 -0.05 0.039160743 -9.2568794 -2.9430617e-17 -3.2724973
0.034455164 -0.05 0.038563245 -9.2836544 6.5501046e-17 -3.4094752
0.032768314 -0.05 0.037955299 -9.3083409 -1.8406582e-16 -3.5533152
0.031112928 -0.05 0.037336551 -9.3338846 8.899926e-17 -3.7071056
0.029489045 -0.05 0.036706567 -9.3638835 -4.3799679e-16 -3.8731708
0.027896723 -0.05 0.036064964 -9.3910425 -3.6731666e-16 -4.0490393
0.026336092 -0.05 0.035411252 -9.4045533 8.795577e-17 -4.2332918
0.024807345 -0.05 0.034744906 -9.4013269 -2.4937671e-16 -4.4261621
0.023310724 -0.05 0.034065408 -9.3695205 -5.7706907e-16 -4.626991
0.02184659 -0.05 0.033372118 -9.3002157 -6.1118475e-16 -4.8380678
0.020415328 -0.05 0.032664449 -9.1988403 -1.4726853e-15 -5.0678777
0.019017488 -0.05 0.031941656 -9.0756149 -8.7818487e-17 -5.320772
0.017653703 -0.05 0.031202957 -8.9338326 8.124163e-16 -5.6017223
0.016324699 -0.05 0.030447583 -8.7630354 -2.86035e-16 -5.9164248
0.015031386 -0.05 0.029674653 -8.5641892 -1.0034091e-15 -6.273821
0.01377486 -0.05 0.028883266 -8.3410249 -6.8775003e-16 -6.6776163
0.012556408 -0.05 0.028072481 -8.0959734 -5.9698846e-16 -7.1253843
0.01137754 -0.05 0.027241244 -7.8550909 4.9848225e-16 -7.6067596
0.010239964 -0.05 0.026388435 -7.6638263 -4.5735025e-16 -8.1088629
0.0091457091 -0.05 0.025513119 -7.5494782 8.4896371e-16 -8.6301938
0.0080972303 -0.05 0.024614361 -7.4313114 -4.1743002e-16 -9.1331294
0.0070972146 -0.05 0.023690967 -7.2299068 -3.4210519e-16 -9.5620595
0.0061486886 -0.05 0.022742089 -6.8921151 -4.0554857e-17 -9.888637
0.0052553755 -0.05 0.021767412 -6.4141363 2.4182791e-16 -10.081213
0.004421127 -0.05 0.020766405 -5.806391 -2.1358404e-16 -10.103332
0.0036500348 -0.05 0.01973908 -5.097436 1.4709661e-17 -9.9448351
0.0029468868 -0.05 0.018686563 -4.3247064 -3.9509191e-16 -9.5898416
0.0023163135 -0.05 0.017610142 -3.5213111 1.0551484e-16 -9.0306102
0.0017627533 -0.05 0.016512134 -2.7233303 -1.5225475e-16 -8.2562093
0.0012902936 -0.05 0.015396417 -1.9702267 -1.5152786e-16 -7.2999399
0.00090219086 -0.05 0.014267259 -1.3039241 2.4348621e-17 -6.2049655
0.00060041236 -0.05 0.01312989 -0.79715717 2.1831133e-16 -5.0300997
0.00038528811 -0.05 0.01199036 -0.44938696 -4.6247681e-17 -3.8207516
0.00025556979 -0.05 0.010854791 -0.24124254 4.4070416e-17 -2.6437189
0.99627939 -0.05 -0.030289193 -2.3982553 -5.3838366e-16 0.41994909
0.99010836 -0.05 -0.02913839 -3.2214888 -1.1531481e-15 0.5734125
0.98393605 -0.05 -0.027994526 -3.4624498 5.6360222e-16 0.62848854
0.97776246 -0.05 -0.026857577 -3.7950901 1.7400994e-16 0.68372621
0.97158762 -0.05 -0.025727436 -4.1379605 -1.362021e-16 0.74296929
0.96541156 -0.05 -0.024603948 -4.4680898 4.5456914e-16 0.79814764
0.95923429 -0.05 -0.023487127 -4.8228124 1.1940858e-15 0.85716716
0.95305584 -0.05 -0.022376913 -5.1816295 5.8979512e-16 0.91606343
0.94687623 -0.05 -0.021273152 -5.5447135 9.1539567e-16 0.97525229
0.94069548 -0.05 -0.020175759 -5.9113632 2.2601361e-16 1.034381
0.93451361 -0.05 -0.019084731 -6.276502 -1.3331694e-15 1.0928422
0.92833063 -0.05 -0.018000008 -6.6437827 -1.2726266e-15 1.1507143
0.92214655 -0.05 -0.016921513 -6.9976029 -1.6382886e-16 1.2060314
0.9159614 -0.05 -0.015849213 -7.3438246 5.4437672e-16 1.2595066
0.90977521 -0.05 -0.014782957 -7.6797256 -6.7986906e-16 1.3109787
0.90358798 -0.05 -0.013722749 -8.012892 -1.693687e-15 1.3605232
0.89739972 -0.05 -0.012668558 -8.3222961 -9.9624227e-16 1.4061475
0.89121046 -0.05 -0.011620248 -8.6195212 -2.9651049e-16 1.4490337
0.88502021 -0.05 -0.010577806 -8.8970469 5.4525545e-16 1.4884508
0.87882897 -0.05 -0.0095412883 -9.1603897 -1.2267634e-15 1.5246791
0.87263676 -0.05 -0.0085105588 -9.3911281 9.2886939e-16 1.55547
0.86644359 -0.05 -0.0074855501 -9.5919212 3.6863475e-16 1.5806302
0.86024948 -0.05 -0.0064662908 -9.7632719 -7.8722444e-16 1.6004582
0.85405444 -0.05 -0.0054526951 -9.9185087 4.4366361e-16 1.6167528
0.84785849 -0.05 -0.0044447009 -10.051414 -1.578194e-15 1.6292442
0.84166163 -0.05 -0.0034423221 -10.168492 1.3083479e-15 1.6388453
0.83546385 -0.05 -0.0024455951 -10.269243 -3.8429194e-16 1.6457344
0.82926519 -0.05 -0.0014543454 -10.356622 1.7271544e-15 1.650374
0.82306566 -0.05 -0.00046861321 -10.430176 -1.4813762e-15 1.6524676
0.81686525 -0.05 0.00051155491 -10.491388 1.986748e-15 1.6526912
0.81066397 -0.05 0.001486238 -10.541098 1.0374202e-16 1.6509129
0.80446182 -0.05 0.0024554455 -10.579301 1.9712177e-15 1.6474891
0.79825884 -0.05 0.0034192086 -10.60843 -1.4490449e-15 1.6424471
0.792055 -0.05 0.0043774821 -10.627771 2.0351043e-15 1.6360273
0.78585033 -0.05 0.0053303521 -10.639219 -1.888039e-15 1.62839
0.77964483 -0.05 0.0062777834 -10.641683 -6.4963383e-17 1.6193377
0.77343849 -0.05 0.0072197443 -10.637892 -1.4978655e-15 1.6093274
0.76723133 -0.05 0.0081562954 -10.627231 1.3445955e-15 1.5982749
0.76102336 -0.05 0.0090874227 -10.609905 -7.3434797e-19 1.5861706
0.75481458 -0.05 0.010013115 -10.585066 1.5308761e-15 1.5731941
0.74860499 -0.05 0.010933345 -10.55639 -6.6272535e-16 1.5596295
0.74239458 -0.05 0.011848097 -10.522288 -8.7770034e-16 1.5454027
0.73618337 -0.05 0.012757356 -10.483888 2.416536e-16 1.5304461
0.72997135 -0.05 0.013661087 -10.439893 6.5275502e-16 1.5148855
0.72375854 -0.05 0.014559322 -10.393001 1.7810474e-15 1.4989478
0.71754494 -0.05 0.015452092 -10.342221 4.1932299e-16 1.4824587
0.71133053 -0.05 0.016339223 -10.286929 3.5301351e-16 1.4650789
0.70511533 -0.05 0.017220763 -10.227187 2.7822866e-16 1.4474099
0.69889932 -0.05 0.01809668 -10.167097 1.074999e-17 1.4292981
0.69268251 -0.05 0.01896688 -10.105786 8.3826949e-16 1.4112502
0.68646492 -0.05 0.019831418 -10.043352 1.3015971e-16 1.3928859
0.68024653 -0.05 0.020690198 -9.9775992 -1.507656e-15 1.3745353
0.67402735 -0.05 0.02154323 -9.9135317 1.0543948e-15 1.3562977
0.66780737 -0.05 0.022390396 -9.8502809 -2.0709266e-16 1.3379632
0.66158658 -0.05 0.023231598 -9.7865216 -3.2419222e-16 1.3197
0.65536499 -0.05 0.024066919 -9.7224494 -5.2940468e-18 1.3015991
0.6491426 -0.05 0.024896273 -9.6599922 1.1593709e-15 1.2835187
0.64291941 -0.05 0.025719495 -9.5981093 -3.9767772e-17 1.2655703
0.63669539 -0.05 0.026536551 -9.5375978 1.2580677e-15 1.2478666
0.63047058 -0.05 0.027347443 -9.4785573 1.5326833e-15 1.2304278
0.62424495 -0.05 0.028152036 -9.4213845 -2.0126664e-15 1.2131167
0.61801849 -0.05 0.028950242 -9.3652025 -1.150719e-15 1.1960905
0.61179122 -0.05 0.02974206 -9.3100864 4.8252456e-16 1.1791472
0.60556312 -0.05 0.030527345 -9.254976 -1.7728972e-15 1.1622174
0.59933419 -0.05 0.031306026 -9.2006959 8.7100168e-16 1.1454294
0.59310444 -0.05 0.032078018 -9.1468313 5.2463088e-16 1.1286191
0.58687383 -0.05 0.032843231 -9.0934509 6.7569437e-16 1.1118836
0.58064239 -0.05 0.033601547 -9.0401416 2.57167e-16 1.0950603
0.5744101 -0.05 0.034352826 -8.987209 5.9339038e-16 1.0783122
0.56817696 -0.05 0.035097032 -8.934742 -1.6648934e-17 1.0616126
0.56194297 -0.05 0.035834042 -8.8825581 4.8918748e-16 1.0448091
0.5557081 -0.05 0.036563698 -8.8301261 -7.278604e-16 1.0280031
0.54947238 -0.05 0.037285926 -8.7784159 -1.1055923e-15 1.0112534
0.54323578 -0.05 0.038000565 -8.726923 1.0341148e-15 0.99438453
0.5369983 -0.05 0.038707475 -8.6756205 3.7356881e-17 0.9775935
0.53075994 -0.05 0.039406585 -8.6247657 7.274436e-17 0.96077996
0.52452069 -0.05 0.040097724 -8.5745143 -2.7629815e-16 0.94393114
0.51828055 -0.05 0.040780749 -8.5246945 -3.0427353e-16 0.92707809
0.51203951 -0.05 0.041455493 -8.4751645 -6.6001497e-16 0.91013605
0.50579757 -0.05 0.042121819 -8.425868 6.721307e-16 0.89326474
0.49955471 -0.05 0.042779601 -8.3776625 -6.6023047e-16 0.8763571
0.49331094 -0.05 0.043428643 -8.3300286 1.0739033e-16 0.85939838
0.48706625 -0.05 0.044068743 -8.2827662 3.6754096e-16 0.84237635
0.48082065 -0.05 0.044699775 -8.2359107 -4.8340198e-16 0.82542868
0.4745741 -0.05 0.045321601 -8.1902087 -1.3729573e-15 0.8084087
0.46832664 -0.05 0.045933971 -8.1450252 2.0017785e-16 0.79127381
0.46207823 -0.05 0.04653667 -8.1001256 1.1551722e-16 0.7740746
0.45582888 -0.05 0.047129536 -8.0555805 -5.4282575e-17 0.75686101
0.44957859 -0.05 0.047712386 -8.011928 5.255559e-16 0.73958931
0.44332734 -0.05 0.048284992 -7.96887 -3.0903701e-16 0.72222336
0.43707515 -0.05 0.048847116 -7.9264457 -8.5666769e-16 0.70476917
0.43082201 -0.05 0.049398546 -7.8845404 3.8487516e-16 0.68727203
0.42456791 -0.05 0.049939084 -7.8436538 3.1742061e-16 0.6697248
0.41831287 -0.05 0.050468479 -7.8035205 -3.1407644e-16 0.65204261
0.41205686 -0.05 0.050986455 -7.7640295 5.9660102e-16 0.63424007
0.40579991 -0.05 0.051492785 -7.7253392 -9.831141e-16 0.61638383
0.399542 -0.05 0.051987185 -7.6877993 1.2777742e-16 0.59833813
0.39328314 -0.05 0.052469345 -7.6507252 -3.3220402e-16 0.58019819
0.38702333 -0.05 0.052939049 -7.6146629 -7.4785159e-17 0.56200948
0.38076258 -0.05 0.053396056 -7.5799472 -2.0755938e-17 0.54368383
0.37450089 -0.05 0.053839968 -7.546482 8.5262822e-17 0.52508184
0.36823826 -0.05 0.054270463 -7.5140657 2.8236062e-16 0.50647781
0.3619747 -0.05 0.0546873 -7.4834423 -1.679663e-16 0.48773744
0.35571023 -0.05 0.05509014 -7.4547022 -6.337576e-16 0.46886866
0.34944485 -0.05 0.055478628 -7.4282533 -8.0064076e-17 0.44983709
0.34317858 -0.05 0.055852374 -7.4039119 -8.2082664e-17 0.43060152
0.33691143 -0.05 0.056211047 -7.3817804 1.2467974e-16 0.41120422
0.33064341 -0.05 0.056554257 -7.3613064 -4.7027837e-16 0.39147203
0.32437455 -0.05 0.056881578 -7.3418787 1.1148336e-16 0.37147793
0.31810485 -0.05 0.057192619 -7.3236525 2.6333633e-16 0.35118305
0.31183435 -0.05 0.057486964 -7.3059631 -7.0490372e-18 0.33039922
0.30556306 -0.05 0.057764177 -7.2203022 2.6978329e-16 0.30463618
