# yPlus  FACE_DATA 448
# x y z  yPlus
0.29465152 -0.05 -0.061894028 23.046093
0.28901963 -0.05 -0.061648608 22.892005
0.28346946 -0.05 -0.061392166 22.978716
0.27799988 -0.05 -0.061124868 23.048872
0.27260976 -0.05 -0.060846934 23.12094
0.26729799 -0.05 -0.060558614 23.193048
0.26206347 -0.05 -0.06026014 23.264944
0.25690514 -0.05 -0.059951713 23.336779
0.25182193 -0.05 -0.059633578 23.408184
0.24681279 -0.05 -0.05930594 23.479926
0.2418767 -0.05 -0.058968939 23.550328
0.23701264 -0.05 -0.058622815 23.620338
0.23221961 -0.05 -0.058267768 23.689375
0.22749661 -0.05 -0.057904021 23.758353
0.22284268 -0.05 -0.057531779 23.827385
0.21825685 -0.05 -0.057151175 23.895998
0.21373819 -0.05 -0.056762435 23.963848
0.20928577 -0.05 -0.056365745 24.031396
0.20489866 -0.05 -0.0559612 24.097552
0.20057596 -0.05 -0.055549028 24.163302
0.19631679 -0.05 -0.055129408 24.228375
0.19212027 -0.05 -0.054702535 24.292987
0.18798551 -0.05 -0.054268578 24.357523
0.18391169 -0.05 -0.053827587 24.420879
0.17989796 -0.05 -0.053379781 24.48378
0.17594349 -0.05 -0.052925318 24.547071
0.17204747 -0.05 -0.052464326 24.609817
0.1682091 -0.05 -0.05199698 24.67325
0.16442757 -0.05 -0.051523411 24.736357
0.16070212 -0.05 -0.051043723 24.799109
0.15703198 -0.05 -0.050558017 24.860232
0.15341639 -0.05 -0.050066487 24.920067
0.14985462 -0.05 -0.049569218 24.978018
0.14634593 -0.05 -0.049066321 25.03376
0.14288959 -0.05 -0.048557916 25.088078
0.13948491 -0.05 -0.04804407 25.140429
0.13613119 -0.05 -0.047524912 25.191292
0.13282772 -0.05 -0.047000529 25.241897
0.12957385 -0.05 -0.046471064 25.291858
0.12636889 -0.05 -0.045936599 25.341118
0.12321221 -0.05 -0.045397134 25.388019
0.12010315 -0.05 -0.044852825 25.433504
0.11704108 -0.05 -0.044303768 25.478627
0.11402537 -0.05 -0.043749951 25.522279
0.11105545 -0.05 -0.043191426 25.563765
0.10813067 -0.05 -0.042628297 25.602752
0.10525048 -0.05 -0.042060573 25.639571
0.10241428 -0.05 -0.041488322 25.672923
0.099621474 -0.05 -0.040911675 25.7046
0.096871547 -0.05 -0.040330552 25.73304
0.094163942 -0.05 -0.039744983 25.756459
0.091498105 -0.05 -0.039155087 25.777251
0.088873536 -0.05 -0.038560759 25.793594
0.086289713 -0.05 -0.037962041 25.802404
0.083746122 -0.05 -0.037358976 25.806779
0.08124227 -0.05 -0.036751568 25.80549
0.078777667 -0.05 -0.036139839 25.803058
0.076351871 -0.05 -0.035523662 25.796942
0.073964424 -0.05 -0.03490301 25.786253
0.071614857 -0.05 -0.034277934 25.773277
0.069302724 -0.05 -0.033648432 25.763302
0.067027627 -0.05 -0.033014373 25.751065
0.064789156 -0.05 -0.032375698 25.731643
0.062586902 -0.05 -0.031732384 25.704412
0.06042049 -0.05 -0.03108432 25.668589
0.058289558 -0.05 -0.030431406 25.624085
0.056193744 -0.05 -0.029773563 25.575479
0.054132712 -0.05 -0.029110672 25.533498
0.052106116 -0.05 -0.028442684 25.498588
0.050113673 -0.05 -0.027769395 25.474082
0.048155099 -0.05 -0.027090639 25.462358
0.046230096 -0.05 -0.026406338 25.460804
0.044338417 -0.05 -0.025716296 25.46174
0.042479837 -0.05 -0.025020316 25.463341
0.040654176 -0.05 -0.024318113 25.46124
0.038861243 -0.05 -0.023609483 25.452869
0.037100849 -0.05 -0.022894268 25.438696
0.035372874 -0.05 -0.022172175 25.421169
0.033677231 -0.05 -0.021442893 25.401645
0.032013859 -0.05 -0.020706103 25.387441
0.030382722 -0.05 -0.019961489 25.379757
0.028783829 -0.05 -0.019208697 25.382871
0.027217258 -0.05 -0.018447299 25.39278
0.025683095 -0.05 -0.017676916 25.405962
0.024181512 -0.05 -0.016897071 25.419577
0.022712743 -0.05 -0.016107257 25.426406
0.021277075 -0.05 -0.015306979 25.424353
0.019874917 -0.05 -0.014495625 25.409786
0.018506703 -0.05 -0.013672646 25.376863
0.017173041 -0.05 -0.012837342 25.328135
0.015874627 -0.05 -0.011988988 25.254804
0.014612246 -0.05 -0.011126874 25.164098
0.013386881 -0.05 -0.0102502 25.034152
0.012199697 -0.05 -0.0093581574 24.866053
0.01105205 -0.05 -0.0084499124 24.652357
0.0099455372 -0.05 -0.0075245398 24.387193
0.0088819502 -0.05 -0.0065810644 24.05301
0.0078633885 -0.05 -0.0056187215 23.639911
0.0068923756 -0.05 -0.0046367809 23.131396
0.0059716878 -0.05 -0.0036342736 22.51022
0.0051044112 -0.05 -0.0026106024 21.747468
0.0042942819 -0.05 -0.0015657608 20.821643
0.0035451829 -0.05 -0.0004995357 19.693758
0.0028611903 -0.05 0.00058772429 18.32321
0.0022469838 -0.05 0.0016945028 16.654447
0.0017070719 -0.05 0.0028191368 14.592729
0.0012456875 -0.05 0.0039589492 12.026278
0.00086658542 -0.05 0.005109743 8.9997815
0.00057265992 -0.05 0.0062669937 5.7690536
0.00036544142 -0.05 0.0074253278 3.48435
0.00024476136 -0.05 0.0085786892 7.6654059
0.00020887223 -0.05 0.0097210798 10.738144
0.99624238 -0.05 -0.031187783 4.2307185
0.98999762 -0.05 -0.03182718 7.1962111
0.98375214 -0.05 -0.032459555 7.0013961
0.97750595 -0.05 -0.033084934 7.3893168
0.97125908 -0.05 -0.033703423 7.5697828
0.96501155 -0.05 -0.034315185 7.785436
0.95876336 -0.05 -0.034920201 7.9676104
0.95251454 -0.05 -0.035518535 8.1407253
0.94626508 -0.05 -0.036110343 8.3015396
0.94001503 -0.05 -0.03669571 8.4536831
0.93376437 -0.05 -0.037274643 8.598242
0.92751312 -0.05 -0.0378472 8.7358501
0.92126131 -0.05 -0.038413461 8.868778
0.91500892 -0.05 -0.038973459 8.9963873
0.90875599 -0.05 -0.039527346 9.1205441
0.90250253 -0.05 -0.040075122 9.2439546
0.89624854 -0.05 -0.040616817 9.3653361
0.88999403 -0.05 -0.041152569 9.4870451
0.88373902 -0.05 -0.041682391 9.6104469
0.8774835 -0.05 -0.042206226 9.7354288
0.87122749 -0.05 -0.042724213 9.8613765
0.86497101 -0.05 -0.043236421 9.9862381
0.85871406 -0.05 -0.043742821 10.107871
0.85245665 -0.05 -0.0442435 10.228435
0.84619879 -0.05 -0.044738522 10.34802
0.83994048 -0.05 -0.045227872 10.465037
0.83368173 -0.05 -0.045711514 10.579452
0.82742255 -0.05 -0.046189626 10.693279
0.82116295 -0.05 -0.046662166 10.807025
0.81490293 -0.05 -0.047129089 10.918204
0.80864249 -0.05 -0.047590474 11.029008
0.80238166 -0.05 -0.048046332 11.139661
0.79612042 -0.05 -0.048496693 11.248875
0.78985879 -0.05 -0.048941514 11.356464
0.78359678 -0.05 -0.049380881 11.464159
0.77733438 -0.05 -0.04981476 11.572352
0.7710716 -0.05 -0.050243118 11.680028
0.76480845 -0.05 -0.050666018 11.78785
0.75854492 -0.05 -0.051083444 11.895683
0.75228105 -0.05 -0.051495387 12.004374
0.74601681 -0.05 -0.05190182 12.113773
0.73975221 -0.05 -0.052302726 12.223076
0.73348726 -0.05 -0.052698092 12.332675
0.72722196 -0.05 -0.053087883 12.442553
0.72095633 -0.05 -0.053472131 12.553055
0.71469035 -0.05 -0.053850867 12.664642
0.70842403 -0.05 -0.054223915 12.776302
0.70215739 -0.05 -0.054591328 12.888465
0.6958904 -0.05 -0.054953071 13.002472
0.68962309 -0.05 -0.05530905 13.11579
0.68335546 -0.05 -0.055659323 13.230672
0.67708751 -0.05 -0.05600379 13.346096
0.67081925 -0.05 -0.056342464 13.462874
0.66455065 -0.05 -0.056675226 13.580492
0.65828175 -0.05 -0.057001977 13.697916
0.65201255 -0.05 -0.057322803 13.817284
0.64574303 -0.05 -0.057637615 13.938597
0.63947321 -0.05 -0.057946249 14.059902
0.63320309 -0.05 -0.058248672 14.181902
0.62693268 -0.05 -0.058544885 14.305451
0.62066196 -0.05 -0.058834753 14.430199
0.61439095 -0.05 -0.05911819 14.55542
0.60811965 -0.05 -0.059395191 14.682468
0.60184807 -0.05 -0.059665615 14.810645
0.59557621 -0.05 -0.059929387 14.939948
0.58930406 -0.05 -0.060186426 15.070604
0.58303163 -0.05 -0.060436639 15.202612
0.57675893 -0.05 -0.06067991 15.336218
0.57048597 -0.05 -0.060916097 15.470548
0.56421275 -0.05 -0.061145166 15.60621
0.55793925 -0.05 -0.061366993 15.743298
0.55166551 -0.05 -0.061581419 15.88164
0.54539151 -0.05 -0.061788372 16.021917
0.53911726 -0.05 -0.061987688 16.163457
0.53284277 -0.05 -0.06217923 16.305943
0.52656805 -0.05 -0.062362927 16.450374
0.5202931 -0.05 -0.062538605 16.596376
0.51401793 -0.05 -0.062706124 16.743711
0.50774253 -0.05 -0.062865317 16.892325
0.50146693 -0.05 -0.063016045 17.042234
0.49519114 -0.05 -0.063158183 17.194362
0.48891514 -0.05 -0.063291537 17.347806
0.48263896 -0.05 -0.063415902 17.502439
0.47636261 -0.05 -0.063531155 17.658303
0.47008609 -0.05 -0.063637157 17.816403
0.46380942 -0.05 -0.063733656 17.975856
0.45753262 -0.05 -0.063820441 18.136629
0.45125568 -0.05 -0.06389735 18.29886
0.44497862 -0.05 -0.063964198 18.463096
0.43870147 -0.05 -0.06402076 18.628819
0.43242423 -0.05 -0.064066796 18.796039
0.42614692 -0.05 -0.064102097 18.964559
0.41986955 -0.05 -0.064126464 19.134935
0.41359216 -0.05 -0.064139648 19.306611
0.40731475 -0.05 -0.064141372 19.479395
0.40103735 -0.05 -0.064131413 19.653717
0.39475998 -0.05 -0.064109484 19.830027
0.38848266 -0.05 -0.064075278 20.007191
0.38220543 -0.05 -0.064028582 20.186045
0.37592831 -0.05 -0.063969154 20.366833
0.36965131 -0.05 -0.063896598 20.548988
0.36337449 -0.05 -0.063810593 20.731604
0.35709788 -0.05 -0.063710901 20.915874
0.3508215 -0.05 -0.063597183 21.10153
0.3445454 -0.05 -0.063469087 21.288833
0.33826961 -0.05 -0.063326225 21.476777
0.33199419 -0.05 -0.06316827 21.666264
0.32571919 -0.05 -0.062994833 21.856956
0.31944464 -0.05 -0.062805491 22.047643
0.3131706 -0.05 -0.062599856 22.237256
0.30689713 -0.05 -0.062377514 22.435858
0.30062429 -0.05 -0.062138035 22.860719
0.29959045 -0.05 0.0580122 22.946241
0.29395746 -0.05 0.058230781 23.022041
0.288405 -0.05 0.058431657 22.895554
0.28293197 -0.05 0.058615085 22.777111
0.27753725 -0.05 0.058781378 22.661985
0.27221976 -0.05 0.058930877 22.551788
0.26697843 -0.05 0.059063904 22.446004
0.26181221 -0.05 0.059180745 22.344567
0.25672006 -0.05 0.059281734 22.247957
0.25170094 -0.05 0.059367159 22.156272
0.24675385 -0.05 0.059437247 22.068349
0.2418778 -0.05 0.059492317 21.984197
0.2370718 -0.05 0.059532654 21.9039
0.2323349 -0.05 0.059558561 21.826897
0.22766611 -0.05 0.059570322 21.753934
0.22306452 -0.05 0.059568148 21.684198
0.2185292 -0.05 0.059552342 21.618312
0.21405923 -0.05 0.059523165 21.556863
0.20965372 -0.05 0.059480788 21.498165
0.20531177 -0.05 0.059425512 21.442761
0.20103252 -0.05 0.05935759 21.390872
0.19681509 -0.05 0.059277287 21.342807
0.19265866 -0.05 0.059184845 21.299311
0.18856237 -0.05 0.059080381 21.258642
0.18452541 -0.05 0.058964183 21.220984
0.18054696 -0.05 0.058836477 21.187204
0.17662623 -0.05 0.058697457 21.155818
0.17276242 -0.05 0.058547364 21.128432
0.16895476 -0.05 0.058386393 21.104108
0.16520248 -0.05 0.058214713 21.08314
0.16150483 -0.05 0.058032487 21.064202
0.15786107 -0.05 0.057839969 21.048135
0.15427046 -0.05 0.057637307 21.035108
0.15073229 -0.05 0.057424669 21.024202
0.14724586 -0.05 0.057202238 21.016645
0.14381045 -0.05 0.056970135 21.011027
0.14042538 -0.05 0.056728547 21.007521
0.13708999 -0.05 0.05647762 21.006511
0.1338036 -0.05 0.056217548 21.007919
0.13056554 -0.05 0.05594847 21.012604
0.12737519 -0.05 0.05567044 21.018625
0.12423189 -0.05 0.055383665 21.026822
0.12113504 -0.05 0.055088294 21.039194
0.11808401 -0.05 0.054784367 21.053745
0.1150782 -0.05 0.054471982 21.069967
0.11211703 -0.05 0.054151295 21.087527
0.10919989 -0.05 0.053822363 21.106482
0.10632623 -0.05 0.053485301 21.124947
0.10349548 -0.05 0.053140289 21.145962
0.10070707 -0.05 0.05278729 21.168366
0.097960481 -0.05 0.05242638 21.190521
0.09525516 -0.05 0.052057722 21.215817
0.092590604 -0.05 0.051681253 21.243436
0.089966295 -0.05 0.051297058 21.270456
0.087381725 -0.05 0.050905221 21.301129
0.084836401 -0.05 0.050505789 21.332711
0.082329838 -0.05 0.050098822 21.368535
0.079861584 -0.05 0.049684231 21.404516
0.077431182 -0.05 0.049262026 21.439964
0.075038167 -0.05 0.048832297 21.475456
0.072682097 -0.05 0.048395078 21.512955
0.070362562 -0.05 0.047950272 21.550984
0.068079148 -0.05 0.047497853 21.588831
0.065831447 -0.05 0.047037833 21.62811
0.063619077 -0.05 0.046570131 21.668029
0.061441667 -0.05 0.046094678 21.708155
0.059298851 -0.05 0.045611424 21.748926
0.057190285 -0.05 0.045120279 21.790187
0.055115618 -0.05 0.044621221 21.833178
0.053074553 -0.05 0.044114072 21.881974
0.051066793 -0.05 0.04359869 21.930626
0.049092033 -0.05 0.043075021 21.984354
0.047150013 -0.05 0.042542889 22.038354
0.045240492 -0.05 0.042002117 22.093372
0.043363265 -0.05 0.041452435 22.147794
0.041518128 -0.05 0.040893658 22.201107
0.039704878 -0.05 0.040325641 22.259302
0.03792337 -0.05 0.039748104 22.323758
0.036173495 -0.05 0.039160743 22.389832
0.034455164 -0.05 0.038563245 22.459853
0.032768314 -0.05 0.037955299 22.53338
0.031112928 -0.05 0.037336551 22.618509
0.029489045 -0.05 0.036706567 22.721813
0.027896723 -0.05 0.036064964 22.831738
0.026336092 -0.05 0.035411252 22.941222
0.024807345 -0.05 0.034744906 23.0484
0.023310724 -0.05 0.034065408 23.142403
0.02184659 -0.05 0.033372118 23.218168
0.020415328 -0.05 0.032664449 23.286562
0.019017488 -0.05 0.031941656 23.369128
0.017653703 -0.05 0.031202957 23.468671
0.016324699 -0.05 0.030447583 23.588779
0.015031386 -0.05 0.029674653 23.738672
0.01377486 -0.05 0.028883266 23.933087
0.012556408 -0.05 0.028072481 24.177246
0.01137754 -0.05 0.027241244 24.500609
0.010239964 -0.05 0.026388435 24.930636
0.0091457091 -0.05 0.025513119 25.490281
0.0080972303 -0.05 0.024614361 26.084794
0.0070972146 -0.05 0.023690967 26.613139
0.0061486886 -0.05 0.022742089 27.006107
0.0052553755 -0.05 0.021767412 27.235236
0.004421127 -0.05 0.020766405 27.25885
0.0036500348 -0.05 0.01973908 27.063473
0.0029468868 -0.05 0.018686563 26.620525
0.0023163135 -0.05 0.017610142 25.895513
0.0017627533 -0.05 0.016512134 24.825758
0.0012902936 -0.05 0.015396417 23.399824
0.00090219086 -0.05 0.014267259 21.611422
0.00060041236 -0.05 0.01312989 19.467981
0.00038528811 -0.05 0.01199036 16.948624
0.00025556979 -0.05 0.010854791 14.054703
0.99627939 -0.05 -0.030289193 15.899447
0.99010836 -0.05 -0.02913839 15.495605
0.98393605 -0.05 -0.027994526 16.058002
0.97776246 -0.05 -0.026857577 16.812303
0.97158762 -0.05 -0.025727436 17.5536
0.96541156 -0.05 -0.024603948 18.239875
0.95923429 -0.05 -0.023487127 18.947836
0.95305584 -0.05 -0.022376913 19.648739
0.94687623 -0.05 -0.021273152 20.328212
0.94069548 -0.05 -0.020175759 20.998443
0.93451361 -0.05 -0.019084731 21.641833
0.92833063 -0.05 -0.018000008 22.281165
0.92214655 -0.05 -0.016921513 22.874344
0.9159614 -0.05 -0.015849213 23.445179
0.90977521 -0.05 -0.014782957 23.981552
0.90358798 -0.05 -0.013722749 24.513788
0.89739972 -0.05 -0.012668558 24.988607
0.89121046 -0.05 -0.011620248 25.438982
0.88502021 -0.05 -0.010577806 25.845379
0.87882897 -0.05 -0.0095412883 26.231456
0.87263676 -0.05 -0.0085105588 26.558637
0.86644359 -0.05 -0.0074855501 26.840059
0.86024948 -0.05 -0.0064662908 27.074571
0.85405444 -0.05 -0.0054526951 27.290286
0.84785849 -0.05 -0.0044447009 27.469826
0.84166163 -0.05 -0.0034423221 27.62693
0.83546385 -0.05 -0.0024455951 27.759835
0.82926519 -0.05 -0.0014543454 27.873996
0.82306566 -0.05 -0.00046861321 27.969136
0.81686525 -0.05 0.00051155491 28.047163
0.81066397 -0.05 0.001486238 28.110252
0.80446182 -0.05 0.0024554455 28.156744
0.79825884 -0.05 0.0034192086 28.191986
0.792055 -0.05 0.0043774821 28.213561
0.78585033 -0.05 0.0053303521 28.225905
0.77964483 -0.05 0.0062777834 28.225632
0.77343849 -0.05 0.0072197443 28.218215
0.76723133 -0.05 0.0081562954 28.201348
0.76102336 -0.05 0.0090874227 28.176371
0.75481458 -0.05 0.010013115 28.139056
0.74860499 -0.05 0.010933345 28.098552
0.74239458 -0.05 0.011848097 28.049958
0.73618337 -0.05 0.012757356 27.996969
0.72997135 -0.05 0.013661087 27.935061
0.72375854 -0.05 0.014559322 27.870325
0.71754494 -0.05 0.015452092 27.800039
0.71133053 -0.05 0.016339223 27.725031
0.70511533 -0.05 0.017220763 27.641542
0.69889932 -0.05 0.01809668 27.558941
0.69268251 -0.05 0.01896688 27.474495
0.68646492 -0.05 0.019831418 27.388161
0.68024653 -0.05 0.020690198 27.296741
0.67402735 -0.05 0.02154323 27.208196
0.66780737 -0.05 0.022390396 27.120429
0.66158658 -0.05 0.023231598 27.032338
0.65536499 -0.05 0.024066919 26.941794
0.6491426 -0.05 0.024896273 26.854013
0.64291941 -0.05 0.025719495 26.766452
0.63669539 -0.05 0.026536551 26.681305
0.63047058 -0.05 0.027347443 26.597193
0.62424495 -0.05 0.028152036 26.516143
0.61801849 -0.05 0.028950242 26.436036
0.61179122 -0.05 0.02974206 26.3579
0.60556312 -0.05 0.030527345 26.278478
0.59933419 -0.05 0.031306026 26.200558
0.59310444 -0.05 0.032078018 26.122991
0.58687383 -0.05 0.032843231 26.04654
0.58064239 -0.05 0.033601547 25.969281
0.5744101 -0.05 0.034352826 25.892776
0.56817696 -0.05 0.035097032 25.816644
0.56194297 -0.05 0.035834042 25.741032
0.5557081 -0.05 0.036563698 25.664017
0.54947238 -0.05 0.037285926 25.588235
0.54323578 -0.05 0.038000565 25.512315
0.5369983 -0.05 0.038707475 25.436802
0.53075994 -0.05 0.039406585 25.361401
0.52452069 -0.05 0.040097724 25.287005
0.51828055 -0.05 0.040780749 25.212878
0.51203951 -0.05 0.041455493 25.139309
0.50579757 -0.05 0.042121819 25.065245
0.49955471 -0.05 0.042779601 24.993155
0.49331094 -0.05 0.043428643 24.921574
0.48706625 -0.05 0.044068743 24.850679
0.48082065 -0.05 0.044699775 24.779768
0.4745741 -0.05 0.045321601 24.710831
0.46832664 -0.05 0.045933971 24.6423
0.46207823 -0.05 0.04653667 24.574262
0.45582888 -0.05 0.047129536 24.505957
0.44957859 -0.05 0.047712386 24.439117
0.44332734 -0.05 0.048284992 24.37265
0.43707515 -0.05 0.048847116 24.307357
0.43082201 -0.05 0.049398546 24.242287
0.42456791 -0.05 0.049939084 24.178961
0.41831287 -0.05 0.050468479 24.116389
0.41205686 -0.05 0.050986455 24.055078
0.40579991 -0.05 0.051492785 23.994151
0.399542 -0.05 0.051987185 23.93535
0.39328314 -0.05 0.052469345 23.876869
0.38702333 -0.05 0.052939049 23.820117
0.38076258 -0.05 0.053396056 23.765016
0.37450089 -0.05 0.053839968 23.712121
0.36823826 -0.05 0.054270463 23.660548
0.3619747 -0.05 0.0546873 23.611691
0.35571023 -0.05 0.05509014 23.565255
0.34944485 -0.05 0.055478628 23.522649
0.34317858 -0.05 0.055852374 23.482988
0.33691143 -0.05 0.056211047 23.447082
0.33064341 -0.05 0.056554257 23.413196
0.32437455 -0.05 0.056881578 23.38141
0.31810485 -0.05 0.057192619 23.351315
0.31183435 -0.05 0.057486964 23.324301
0.30556306 -0.05 0.057764177 23.061839
