# p  FACE_DATA 448
# x y z  p
0.29919582 -0.05 -0.058347237 99481.167
0.29356147 -0.05 -0.058527604 99474.546
0.28800778 -0.05 -0.058690814 99467.405
0.28253362 -0.05 -0.058837114 99460.5
0.2771379 -0.05 -0.05896681 99453.664
0.27181952 -0.05 -0.059080238 99447.02
0.26657741 -0.05 -0.059177709 99440.433
0.26141051 -0.05 -0.059259506 99434.071
0.2563178 -0.05 -0.059325952 99427.72
0.25129822 -0.05 -0.05937733 99421.539
0.24635076 -0.05 -0.059413861 99415.368
0.24147446 -0.05 -0.059435856 99409.4
0.2366683 -0.05 -0.059443593 99403.574
0.23193131 -0.05 -0.059437369 99397.81
0.22726256 -0.05 -0.059417462 99392.132
0.22266109 -0.05 -0.059384075 99386.682
0.21812598 -0.05 -0.059337506 99381.224
0.21365631 -0.05 -0.05927801 99375.955
0.20925118 -0.05 -0.059205752 99370.789
0.20490971 -0.05 -0.059121026 99365.69
0.20063102 -0.05 -0.059024079 99360.778
0.19641425 -0.05 -0.058915172 99355.873
0.19225853 -0.05 -0.058794538 99351.127
0.18816304 -0.05 -0.058662291 99346.626
0.18412697 -0.05 -0.058518714 99342.099
0.18014948 -0.05 -0.058364026 99337.808
0.17622978 -0.05 -0.058198414 99333.495
0.17236707 -0.05 -0.058022117 99329.306
0.16856059 -0.05 -0.057835322 99325.173
0.16480955 -0.05 -0.057638194 99321.294
0.16111323 -0.05 -0.057430891 99317.523
0.15747085 -0.05 -0.057213663 99313.784
0.15388171 -0.05 -0.056986649 99310.218
0.15034507 -0.05 -0.056750018 99306.663
0.14686022 -0.05 -0.056503943 99303.295
0.14342647 -0.05 -0.056248543 99300.085
0.14004311 -0.05 -0.055984 99296.971
0.13670951 -0.05 -0.055710454 99294.048
0.13342495 -0.05 -0.055428098 99291.091
0.13018879 -0.05 -0.055137063 99288.398
0.1270004 -0.05 -0.054837398 99285.912
0.12385912 -0.05 -0.054529309 99283.383
0.12076433 -0.05 -0.054212938 99280.994
0.11771544 -0.05 -0.053888323 99278.779
0.11471182 -0.05 -0.053555557 99276.672
0.11175289 -0.05 -0.053214792 99274.592
0.10883806 -0.05 -0.052866081 99272.831
0.10596675 -0.05 -0.052509535 99271.054
0.1031384 -0.05 -0.05214533 99269.379
0.10035245 -0.05 -0.051773425 99268.097
0.097608372 -0.05 -0.051393893 99266.768
0.094905614 -0.05 -0.051006893 99265.544
0.092243673 -0.05 -0.05061236 99264.814
0.08962203 -0.05 -0.050210373 99264.076
0.087040176 -0.05 -0.049801014 99263.682
0.084497621 -0.05 -0.049384327 99263.204
0.081993876 -0.05 -0.048960367 99263.003
0.079528491 -0.05 -0.048529043 99263.196
0.077101009 -0.05 -0.048090363 99263.691
0.074710964 -0.05 -0.047644412 99264.247
0.072357913 -0.05 -0.047191222 99265.026
0.070041448 -0.05 -0.046730693 99266.242
0.067761156 -0.05 -0.046262796 99267.624
0.065516627 -0.05 -0.045787539 99269.303
0.06330748 -0.05 -0.045304842 99271.363
0.061133345 -0.05 -0.044814631 99273.802
0.058993857 -0.05 -0.044316854 99276.572
0.056888671 -0.05 -0.043811418 99279.724
0.054817437 -0.05 -0.043298299 99283.057
0.052779858 -0.05 -0.042777317 99287.237
0.050775641 -0.05 -0.042248328 99291.645
0.048804478 -0.05 -0.041711276 99296.621
0.046866113 -0.05 -0.041165983 99301.983
0.044960303 -0.05 -0.040612272 99308.033
0.043086848 -0.05 -0.04004987 99314.907
0.041245544 -0.05 -0.03947859 99322.456
0.039436187 -0.05 -0.038898286 99330.58
0.037658639 -0.05 -0.038308678 99339.952
0.035912787 -0.05 -0.037709461 99350.062
0.034198548 -0.05 -0.037100323 99361.256
0.032515861 -0.05 -0.036480949 99373.406
0.03086471 -0.05 -0.035850986 99386.98
0.029245138 -0.05 -0.035210002 99401.938
0.027657205 -0.05 -0.034557613 99418.358
0.026101044 -0.05 -0.03389333 99436.632
0.024576851 -0.05 -0.03321663 99456.769
0.023084874 -0.05 -0.032526997 99479.047
0.021625476 -0.05 -0.031823791 99503.875
0.020199048 -0.05 -0.03110643 99531.137
0.018806143 -0.05 -0.030374172 99561.889
0.0174474 -0.05 -0.029626241 99595.842
0.016123548 -0.05 -0.028861869 99633.75
0.01483551 -0.05 -0.028080184 99675.611
0.013584381 -0.05 -0.027280293 99722.153
0.012371455 -0.05 -0.026461261 99773.861
0.011198253 -0.05 -0.025622046 99832.29
0.010066487 -0.05 -0.02476154 99897.339
0.008978195 -0.05 -0.023878822 99970.022
0.0079358365 -0.05 -0.022972974 100051.47
0.0069421072 -0.05 -0.022042818 100142.01
0.0060000393 -0.05 -0.021087528 100241.94
0.0051133578 -0.05 -0.020106814 100352.07
0.0042859184 -0.05 -0.019100171 100471.82
0.0035218122 -0.05 -0.018067639 100600.29
0.0028258196 -0.05 -0.017010377 100735.93
0.0022025621 -0.05 -0.015929703 100876.31
0.0016564625 -0.05 -0.014827967 101017.18
0.0011915815 -0.05 -0.01370907 101153.43
0.00081114677 -0.05 -0.012577306 101279.22
0.00051708996 -0.05 -0.011437916 101387.87
0.00030970007 -0.05 -0.010296954 101475.36
0.00018768728 -0.05 -0.0091605307 101538.57
0.99646767 -0.05 0.0252265 99979.182
0.99028899 -0.05 0.024117581 99983.296
0.98410905 -0.05 0.023015611 99976.587
0.97792789 -0.05 0.021920563 99979.176
0.97174552 -0.05 0.020832332 99976.783
0.96556199 -0.05 0.019750761 99976.78
0.9593773 -0.05 0.018675867 99975.564
0.95319145 -0.05 0.017607586 99974.935
0.9470045 -0.05 0.016545766 99973.967
0.94081644 -0.05 0.015490323 99973.171
0.93462731 -0.05 0.014441252 99972.245
0.92843712 -0.05 0.013398492 99971.385
0.92224587 -0.05 0.012361969 99970.432
0.91605359 -0.05 0.011331647 99969.532
0.90986031 -0.05 0.010307377 99968.546
0.90366603 -0.05 0.0092891617 99967.603
0.89747075 -0.05 0.0082769691 99966.574
0.89127453 -0.05 0.0072706648 99965.571
0.88507735 -0.05 0.0062702349 99964.497
0.87887921 -0.05 0.0052757362 99963.436
0.87268016 -0.05 0.0042870322 99962.304
0.86648019 -0.05 0.0033040551 99961.187
0.86027931 -0.05 0.0023268338 99959.995
0.85407753 -0.05 0.0013552822 99958.815
0.84787488 -0.05 0.00038933819 99957.563
0.84167136 -0.05 -0.00057098434 99956.302
0.83546697 -0.05 -0.0015256491 99954.972
0.82926173 -0.05 -0.0024748306 99953.617
0.82305565 -0.05 -0.0034184888 99952.192
0.81684873 -0.05 -0.0043565771 99950.747
0.81064099 -0.05 -0.0052891747 99949.226
0.80443241 -0.05 -0.0062162908 99947.678
0.79822302 -0.05 -0.007137957 99946.042
0.79201283 -0.05 -0.008054128 99944.374
0.78580184 -0.05 -0.0089648899 99942.623
0.77959006 -0.05 -0.0098702077 99940.832
0.77337747 -0.05 -0.01077005 99938.956
0.76716412 -0.05 -0.011664476 99937.029
0.76094997 -0.05 -0.012553474 99935.015
0.75473505 -0.05 -0.01343703 99932.942
0.74851935 -0.05 -0.01431512 99930.77
0.74230288 -0.05 -0.015187726 99928.517
0.73608565 -0.05 -0.016054833 99926.158
0.72986765 -0.05 -0.016916408 99923.718
0.72364889 -0.05 -0.017772481 99921.156
0.71742938 -0.05 -0.018623083 99918.505
0.71120909 -0.05 -0.019468041 99915.742
0.70498805 -0.05 -0.020307404 99912.854
0.69876625 -0.05 -0.021141137 99909.82
0.69254369 -0.05 -0.021969148 99906.679
0.68632037 -0.05 -0.022791494 99903.405
0.6800963 -0.05 -0.023608074 99900.016
0.67387147 -0.05 -0.024418901 99896.448
0.66764588 -0.05 -0.025223859 99892.773
0.66141953 -0.05 -0.026022846 99888.934
0.65519242 -0.05 -0.026815947 99884.952
0.64896455 -0.05 -0.027603076 99880.79
0.64273591 -0.05 -0.028384066 99876.498
0.63650651 -0.05 -0.029158887 99872.036
0.63027633 -0.05 -0.029927538 99867.433
0.62404538 -0.05 -0.030689883 99862.65
0.61781365 -0.05 -0.031445838 99857.711
0.61158115 -0.05 -0.032195398 99852.584
0.60534787 -0.05 -0.032938419 99847.33
0.59911381 -0.05 -0.033674832 99841.823
0.59287895 -0.05 -0.034404549 99836.218
0.58664331 -0.05 -0.035127482 99830.396
0.58040687 -0.05 -0.035843514 99824.463
0.57416962 -0.05 -0.036552502 99818.33
0.56793158 -0.05 -0.037254411 99812.073
0.56169273 -0.05 -0.03794912 99805.659
0.55545306 -0.05 -0.038636468 99799.109
0.54921258 -0.05 -0.039316383 99792.357
0.54297128 -0.05 -0.039988702 99785.538
0.53672914 -0.05 -0.040653287 99778.563
0.53048618 -0.05 -0.041310067 99771.463
0.5242424 -0.05 -0.041958868 99764.202
0.51799776 -0.05 -0.042599551 99756.924
0.51175229 -0.05 -0.043231947 99749.737
0.50550597 -0.05 -0.043855918 99742.469
0.4992588 -0.05 -0.04447134 99734.983
0.49301077 -0.05 -0.045078016 99727.42
0.48676188 -0.05 -0.045675744 99719.816
0.48051213 -0.05 -0.046264397 99712.175
0.47426152 -0.05 -0.046843839 99704.458
0.46801004 -0.05 -0.047413819 99696.688
0.46175769 -0.05 -0.047974122 99688.858
0.45550446 -0.05 -0.048524585 99681.033
0.44925036 -0.05 -0.049065025 99673.189
0.44299538 -0.05 -0.049595216 99665.297
0.43673952 -0.05 -0.050114919 99657.347
0.43048278 -0.05 -0.050623921 99649.375
0.42422516 -0.05 -0.051122025 99641.42
0.41796666 -0.05 -0.05160898 99633.493
0.41170729 -0.05 -0.05208451 99625.514
0.40544705 -0.05 -0.052548388 99617.435
0.39918593 -0.05 -0.053000329 99609.394
0.39292394 -0.05 -0.053440024 99601.438
0.38666109 -0.05 -0.053867257 99593.467
0.38039738 -0.05 -0.054281787 99585.381
0.37413282 -0.05 -0.054683216 99577.317
0.36786742 -0.05 -0.055071222 99569.248
0.36160118 -0.05 -0.055445564 99561.257
0.35533412 -0.05 -0.055805903 99553.28
0.34906626 -0.05 -0.056151883 99545.231
0.3427976 -0.05 -0.056483117 99537.163
0.33652816 -0.05 -0.056799272 99529.08
0.33025795 -0.05 -0.057099959 99521.148
0.32398702 -0.05 -0.057384751 99513.234
0.31771535 -0.05 -0.057653257 99505.12
0.311443 -0.05 -0.057905063 99496.742
0.30516997 -0.05 -0.058139731 99489.548
0.29507032 -0.05 0.061589734 99488.934
0.28943689 -0.05 0.061382521 99484.579
0.28388512 -0.05 0.061163732 99481.213
0.27841384 -0.05 0.06093354 99477.788
0.27302197 -0.05 0.060692172 99474.54
0.26770836 -0.05 0.060439888 99471.403
0.26247194 -0.05 0.060176927 99468.365
0.25731164 -0.05 0.059903497 99465.501
0.25222638 -0.05 0.059619849 99462.682
0.24721513 -0.05 0.059326194 99460.041
0.24227687 -0.05 0.059022682 99457.512
0.23741057 -0.05 0.058709559 99455.123
0.23261524 -0.05 0.058387031 99452.876
0.22788989 -0.05 0.058055328 99450.705
0.22323354 -0.05 0.057714663 99448.663
0.21864524 -0.05 0.057365173 99446.797
0.21412405 -0.05 0.057007093 99444.965
0.20966903 -0.05 0.056640612 99443.318
0.20527928 -0.05 0.056265834 99441.834
0.20095389 -0.05 0.055882992 99440.441
0.19669197 -0.05 0.055492271 99439.224
0.19249264 -0.05 0.055093873 99438.045
0.18835504 -0.05 0.054687972 99437.043
0.18427833 -0.05 0.054274624 99436.245
0.18026164 -0.05 0.053854053 99435.474
0.17630419 -0.05 0.053426424 99434.932
0.17240514 -0.05 0.052991869 99434.471
0.16856368 -0.05 0.05255057 99434.163
0.16477902 -0.05 0.052102661 99433.943
0.1610504 -0.05 0.051648254 99433.952
0.15737705 -0.05 0.051187454 99434.108
0.15375822 -0.05 0.05072046 99434.366
0.15019316 -0.05 0.050247362 99434.838
0.14668114 -0.05 0.049768276 99435.381
0.14322143 -0.05 0.049283328 99436.106
0.13981334 -0.05 0.048792587 99436.968
0.13645616 -0.05 0.048296188 99437.991
0.13314923 -0.05 0.047794225 99439.233
0.12989183 -0.05 0.047286843 99440.57
0.12668332 -0.05 0.046774129 99442.166
0.12352306 -0.05 0.046256088 99443.994
0.12041038 -0.05 0.04573288 99445.864
0.11734465 -0.05 0.045204606 99447.885
0.11432526 -0.05 0.044671257 99450.088
0.11135161 -0.05 0.04413289 99452.516
0.10842308 -0.05 0.043589613 99455.124
0.1055391 -0.05 0.043041439 99458.109
0.10269908 -0.05 0.042488439 99461.187
0.09990244 -0.05 0.041930749 99464.459
0.097148631 -0.05 0.041368292 99468.05
0.094437117 -0.05 0.040801102 99471.698
0.091767339 -0.05 0.040229301 99475.533
0.089138799 -0.05 0.039652789 99479.849
0.086550974 -0.05 0.039071612 99484.315
0.084003352 -0.05 0.038485813 99489.214
0.081495437 -0.05 0.037895403 99494.207
0.079026742 -0.05 0.037300405 99499.477
0.076596822 -0.05 0.036700696 99505.036
0.074205219 -0.05 0.036096253 99510.941
0.071851467 -0.05 0.035487128 99517.13
0.069535117 -0.05 0.034873323 99523.737
0.067255772 -0.05 0.034254711 99530.884
0.06501302 -0.05 0.033631234 99538.372
0.062806453 -0.05 0.033002872 99546.129
0.060635696 -0.05 0.032369518 99554.21
0.058500383 -0.05 0.031731074 99562.716
0.056400155 -0.05 0.031087461 99571.824
0.054334675 -0.05 0.030438566 99581.539
0.052303595 -0.05 0.029784339 99591.759
0.050306631 -0.05 0.02912458 99602.695
0.048343498 -0.05 0.028459125 99613.913
0.046413897 -0.05 0.027787897 99625.854
0.044517582 -0.05 0.027110703 99638.444
0.042654324 -0.05 0.026427345 99651.951
0.040823941 -0.05 0.025737541 99666.62
0.039026244 -0.05 0.02504109 99682.148
0.037261038 -0.05 0.024337831 99698.203
0.035528205 -0.05 0.023627476 99714.865
0.033827654 -0.05 0.022909712 99732.748
0.032159322 -0.05 0.022184222 99752.275
0.030523172 -0.05 0.021450689 99773.412
0.02891921 -0.05 0.020708759 99795.978
0.02734751 -0.05 0.019958004 99819.502
0.025808157 -0.05 0.019198046 99844.322
0.024301319 -0.05 0.018428404 99871.579
0.022827228 -0.05 0.017648571 99901.378
0.021386163 -0.05 0.016858049 99933.352
0.019978534 -0.05 0.016056225 99967.277
0.01860477 -0.05 0.015242545 100002.72
0.017265472 -0.05 0.014416307 100040.61
0.015961334 -0.05 0.01357678 100081.55
0.014693134 -0.05 0.012723248 100127.04
0.013461852 -0.05 0.011854906 100177.02
0.012268644 -0.05 0.010970937 100232.13
0.011114863 -0.05 0.010070497 100293.3
0.010002098 -0.05 0.0091526506 100360.62
0.0089321363 -0.05 0.0082164112 100432.5
0.0079070704 -0.05 0.0072609994 100509.64
0.0069294195 -0.05 0.0062856677 100591.46
0.0060019529 -0.05 0.0052894285 100679.29
0.0051277526 -0.05 0.0042716636 100772.81
0.0043105549 -0.05 0.0032323411 100872.58
0.0035542408 -0.05 0.0021712216 100976.54
0.0028628892 -0.05 0.0010886261 101082.96
0.0022411895 -0.05 -1.396077e-05 101189.34
0.0016936617 -0.05 -0.0011349067 101292.2
0.0012245566 -0.05 -0.0022715633 101386.07
0.00083765741 -0.05 -0.0034197592 101465.4
0.00053588903 -0.05 -0.0045749896 101529
0.00032081834 -0.05 -0.0057318915 101569.94
0.00019231784 -0.05 -0.0068844078 101584.65
0.00014868073 -0.05 -0.0080265289 101574.54
0.99643676 -0.05 0.026125321 100144.77
0.99019648 -0.05 0.026807061 100046.12
0.98395542 -0.05 0.027481784 100048.18
0.97771363 -0.05 0.028149515 100029.14
0.97147111 -0.05 0.028810364 100018.45
0.96522787 -0.05 0.029464489 100006.75
0.95898392 -0.05 0.030111872 99996.839
0.9527393 -0.05 0.030752578 99987.38
0.94649401 -0.05 0.031386762 99978.623
0.94024806 -0.05 0.032014511 99970.224
0.93400148 -0.05 0.032635827 99962.421
0.92775425 -0.05 0.033250774 99954.858
0.92150641 -0.05 0.033859427 99947.731
0.91525798 -0.05 0.034461822 99940.889
0.90900895 -0.05 0.035058111 99934.241
0.90275934 -0.05 0.03564829 99927.903
0.89650916 -0.05 0.036232394 99921.752
0.89025844 -0.05 0.036810558 99915.689
0.88400717 -0.05 0.037382794 99909.824
0.87775535 -0.05 0.037949049 99904.237
0.871503 -0.05 0.038509459 99898.634
0.86525014 -0.05 0.039064093 99893.245
0.85899676 -0.05 0.039612921 99887.976
0.85274289 -0.05 0.040156033 99882.803
0.84648853 -0.05 0.04069349 99877.662
0.84023369 -0.05 0.041225279 99872.694
0.83397836 -0.05 0.041751363 99867.902
0.82772256 -0.05 0.042271919 99862.949
0.82146632 -0.05 0.042786907 99858.282
0.81520961 -0.05 0.043296281 99853.563
0.80895244 -0.05 0.043800121 99848.987
0.80269484 -0.05 0.044298434 99844.375
0.79643681 -0.05 0.044791255 99839.853
0.79017833 -0.05 0.045278538 99835.416
0.78391945 -0.05 0.04576037 99830.901
0.77766014 -0.05 0.046236717 99826.552
0.77140041 -0.05 0.046707546 99822.21
0.76514027 -0.05 0.047172917 99817.918
0.75887973 -0.05 0.04763282 99813.622
0.75261878 -0.05 0.048087242 99809.345
0.74635744 -0.05 0.048536155 99805.085
0.74009571 -0.05 0.048979545 99800.811
0.73383359 -0.05 0.049417397 99796.566
0.72757108 -0.05 0.049849676 99792.426
0.72130819 -0.05 0.050276415 99788.209
0.71504493 -0.05 0.050697644 99783.985
0.70878129 -0.05 0.051113188 99779.958
0.70251728 -0.05 0.0515231 99775.724
0.69625289 -0.05 0.051927342 99771.664
0.68998814 -0.05 0.052325824 99767.496
0.68372303 -0.05 0.052718602 99763.336
0.67745755 -0.05 0.053105577 99759.187
0.67119173 -0.05 0.05348676 99754.941
0.66492554 -0.05 0.053862035 99750.852
0.658659 -0.05 0.0542313 99746.787
0.65239212 -0.05 0.054594642 99742.641
0.64612489 -0.05 0.054951973 99738.517
0.6398573 -0.05 0.055303128 99734.428
0.63358937 -0.05 0.055648074 99730.287
0.62732111 -0.05 0.055986813 99726.046
0.62105251 -0.05 0.056319208 99721.885
0.61478356 -0.05 0.056645173 99717.673
0.60851429 -0.05 0.056964707 99713.425
0.60224468 -0.05 0.057277665 99709.28
0.59597475 -0.05 0.057583973 99705.089
0.58970449 -0.05 0.057883549 99700.927
0.58343391 -0.05 0.058176302 99696.65
0.57716301 -0.05 0.058462117 99692.408
0.57089179 -0.05 0.058740847 99688.144
0.56462026 -0.05 0.059012461 99683.793
0.55834842 -0.05 0.059276836 99679.43
0.55207627 -0.05 0.059533812 99675.069
0.54580382 -0.05 0.059783316 99670.617
0.53953107 -0.05 0.060025187 99666.233
0.53325802 -0.05 0.060259283 99661.782
0.5269847 -0.05 0.060485537 99657.289
0.52071108 -0.05 0.060703775 99652.74
0.51443719 -0.05 0.060913855 99648.171
0.50816302 -0.05 0.061115609 99643.659
0.50188858 -0.05 0.0613089 99639.092
0.4956139 -0.05 0.061493605 99634.466
0.48933895 -0.05 0.061669526 99629.835
0.48306376 -0.05 0.061836459 99625.224
0.47678833 -0.05 0.06199428 99620.537
0.47051268 -0.05 0.062142854 99615.801
0.46423681 -0.05 0.062281926 99611.085
0.45796074 -0.05 0.062411285 99606.373
0.45168447 -0.05 0.062530768 99601.67
0.445408 -0.05 0.062640191 99596.933
0.43913137 -0.05 0.062739329 99592.206
0.43285459 -0.05 0.062827944 99587.492
0.42657767 -0.05 0.062905822 99582.791
0.42030061 -0.05 0.062972768 99578.051
0.41402345 -0.05 0.06302853 99573.328
0.40774619 -0.05 0.063072835 99568.616
0.40146888 -0.05 0.063105455 99563.892
0.3951915 -0.05 0.063126106 99559.199
0.38891409 -0.05 0.06313448 99554.564
0.38263669 -0.05 0.063130363 99549.89
0.3763593 -0.05 0.063113513 99545.203
0.37008197 -0.05 0.063083536 99540.639
0.36380471 -0.05 0.063040108 99536.066
0.35752756 -0.05 0.062982993 99531.493
0.35125056 -0.05 0.06291185 99526.96
0.34497374 -0.05 0.062826328 99522.45
0.33869713 -0.05 0.062726038 99518.014
0.33242078 -0.05 0.062610652 99513.54
0.32614473 -0.05 0.062479782 99509.159
0.31986905 -0.05 0.062333005 99504.87
0.31359377 -0.05 0.062169931 99500.794
0.30731893 -0.05 0.061990147 99496.443
0.30104461 -0.05 0.061793222 99491.211
