# wallShearStress  FACE_DATA 448
# x y z  wallShearStress_x wallShearStress_y wallShearStress_z
0.29919582 -0.05 -0.058347237 -7.0032812 1.130975e-17 -0.21948083
0.29356147 -0.05 -0.058527604 -7.2721575 3.4185696e-16 -0.20888766
0.28800778 -0.05 -0.058690814 -7.4776546 6.8596079e-17 -0.19571272
0.28253362 -0.05 -0.058837114 -7.6861189 2.0088218e-18 -0.18058082
0.2771379 -0.05 -0.05896681 -7.8940405 -3.2113078e-17 -0.16422148
0.27181952 -0.05 -0.059080238 -8.1024662 -4.8166726e-17 -0.14650771
0.26657741 -0.05 -0.059177709 -8.3106859 2.7709833e-17 -0.12757184
0.26141051 -0.05 -0.059259506 -8.5184992 -1.2559162e-16 -0.10748741
0.2563178 -0.05 -0.059325952 -8.7251248 -4.6599603e-18 -0.086907627
0.25129822 -0.05 -0.05937733 -8.9306899 -9.040692e-18 -0.064258859
0.24635076 -0.05 -0.059413861 -9.1347825 -3.2088784e-17 -0.037382343
0.24147446 -0.05 -0.059435856 -9.3374365 -2.9853718e-17 -0.010578788
0.2366683 -0.05 -0.059443593 -9.5371587 3.4845297e-18 0.018151688
0.23193131 -0.05 -0.059437369 -9.7339761 1.5387301e-17 0.048680148
0.22726256 -0.05 -0.059417462 -9.9295483 -4.0712364e-17 0.078680379
0.22266109 -0.05 -0.059384075 -10.123586 2.5027125e-17 0.10955747
0.21812598 -0.05 -0.059337506 -10.315898 2.4362555e-17 0.1421579
0.21365631 -0.05 -0.05927801 -10.506697 -5.8746299e-17 0.17653253
0.20925118 -0.05 -0.059205752 -10.69501 5.6893102e-17 0.21300272
0.20490971 -0.05 -0.059121026 -10.88145 2.3350828e-18 0.25100508
0.20063102 -0.05 -0.059024079 -11.066031 4.2835589e-17 0.29055499
0.19641425 -0.05 -0.058915172 -11.248872 -2.3617978e-16 0.33155545
0.19225853 -0.05 -0.058794538 -11.429954 8.8909663e-17 0.3743618
0.18816304 -0.05 -0.058662291 -11.60772 3.2130024e-16 0.41866354
0.18412697 -0.05 -0.058518714 -11.782626 2.786344e-16 0.46424191
0.18014948 -0.05 -0.058364026 -11.954695 -2.3532335e-16 0.5115637
0.17622978 -0.05 -0.058198414 -12.123271 -2.1370443e-17 0.56016641
0.17236707 -0.05 -0.058022117 -12.28874 -3.0804481e-17 0.61045517
0.16856059 -0.05 -0.057835322 -12.450156 -2.5808032e-16 0.66218405
0.16480955 -0.05 -0.057638194 -12.606925 -1.7040731e-16 0.71555461
0.16111323 -0.05 -0.057430891 -12.758351 -2.2168478e-16 0.77011709
0.15747085 -0.05 -0.057213663 -12.905418 -2.67887e-17 0.82616963
0.15388171 -0.05 -0.056986649 -13.047944 -3.3242216e-17 0.88385298
0.15034507 -0.05 -0.056750018 -13.186242 2.265796e-17 0.94290706
0.14686022 -0.05 -0.056503943 -13.321638 2.796743e-16 1.003718
0.14342647 -0.05 -0.056248543 -13.454775 3.3555545e-16 1.0659773
0.14004311 -0.05 -0.055984 -13.587256 4.6995085e-16 1.1298076
0.13670951 -0.05 -0.055710454 -13.718418 -8.8850887e-17 1.1951933
0.13342495 -0.05 -0.055428098 -13.846523 -2.5238351e-17 1.261952
0.13018879 -0.05 -0.055137063 -13.969537 -3.3092333e-16 1.3304703
0.1270004 -0.05 -0.054837398 -14.084325 -1.6726867e-16 1.3999699
0.12385912 -0.05 -0.054529309 -14.190653 5.0823485e-16 1.4705955
0.12076433 -0.05 -0.054212938 -14.286425 -2.404751e-16 1.5429375
0.11771544 -0.05 -0.053888323 -14.371689 -7.3799198e-16 1.6168408
0.11471182 -0.05 -0.053555557 -14.449105 -1.459127e-17 1.6924646
0.11175289 -0.05 -0.053214792 -14.523363 5.9349413e-16 1.7705303
0.10883806 -0.05 -0.052866081 -14.598739 -3.5993994e-17 1.8514435
0.10596675 -0.05 -0.052509535 -14.678094 -7.2543461e-16 1.9349771
0.1031384 -0.05 -0.05214533 -14.76422 8.6122979e-16 2.0224394
0.10035245 -0.05 -0.051773425 -14.856342 2.6151269e-16 2.1133745
0.097608372 -0.05 -0.051393893 -14.95108 -6.7403801e-16 2.206998
0.094905614 -0.05 -0.051006893 -15.049665 6.8074089e-16 2.3047952
0.092243673 -0.05 -0.05061236 -15.14945 -6.637618e-16 2.4060149
0.08962203 -0.05 -0.050210373 -15.249929 -1.6213119e-16 2.5102126
0.087040176 -0.05 -0.049801014 -15.353115 6.5563724e-16 2.6185952
0.084497621 -0.05 -0.049384327 -15.458564 -1.5276622e-16 2.7308424
0.081993876 -0.05 -0.048960367 -15.567558 -4.0914967e-16 2.8483215
0.079528491 -0.05 -0.048529043 -15.677382 2.0176207e-16 2.9699569
0.077101009 -0.05 -0.048090363 -15.787489 7.2860858e-16 3.0954864
0.074710964 -0.05 -0.047644412 -15.898329 -8.1738123e-17 3.2256128
0.072357913 -0.05 -0.047191222 -16.009481 -3.7390573e-16 3.3612443
0.070041448 -0.05 -0.046730693 -16.118138 6.1982031e-16 3.5015739
0.067761156 -0.05 -0.046262796 -16.2228 2.002936e-16 3.6462585
0.065516627 -0.05 -0.045787539 -16.323457 2.0511567e-16 3.7961609
0.06330748 -0.05 -0.045304842 -16.417813 -6.0739903e-18 3.9508483
0.061133345 -0.05 -0.044814631 -16.504357 -6.5239487e-16 4.1100985
0.058993857 -0.05 -0.044316854 -16.5822 -8.1338417e-16 4.2742356
0.056888671 -0.05 -0.043811418 -16.650859 -3.0069481e-16 4.4433859
0.054817437 -0.05 -0.043298299 -16.709802 4.4251277e-16 4.6183153
0.052779858 -0.05 -0.042777317 -16.759691 4.0679615e-17 4.7989182
0.050775641 -0.05 -0.042248328 -16.798835 -7.2577064e-16 4.984231
0.048804478 -0.05 -0.041711276 -16.829552 -2.899348e-16 5.1761153
0.046866113 -0.05 -0.041165983 -16.849765 3.4754753e-16 5.3743488
0.044960303 -0.05 -0.040612272 -16.858326 -2.9530067e-16 5.579511
0.043086848 -0.05 -0.04004987 -16.852963 -2.3125503e-17 5.7906261
0.041245544 -0.05 -0.03947859 -16.83336 -9.4077146e-16 6.0068214
0.039436187 -0.05 -0.038898286 -16.806694 -2.2604296e-16 6.233475
0.037658639 -0.05 -0.038308678 -16.764575 -6.3164626e-16 6.4687568
0.035912787 -0.05 -0.037709461 -16.700635 -3.6366172e-16 6.7038813
0.034198548 -0.05 -0.037100323 -16.621939 -2.6838032e-16 6.9476829
0.032515861 -0.05 -0.036480949 -16.526475 4.6145746e-16 7.1997224
0.03086471 -0.05 -0.035850986 -16.412451 -2.5701622e-16 7.459703
0.029245138 -0.05 -0.035210002 -16.27649 3.2680412e-16 7.725357
0.027657205 -0.05 -0.034557613 -16.118563 -1.3310005e-15 7.9976538
0.026101044 -0.05 -0.03389333 -15.936536 3.4022264e-16 8.2752021
0.024576851 -0.05 -0.03321663 -15.728173 2.7758948e-16 8.5571255
0.023084874 -0.05 -0.032526997 -15.491942 -8.4012356e-16 8.8427055
0.021625476 -0.05 -0.031823791 -15.225266 1.1224557e-16 9.1294155
0.020199048 -0.05 -0.03110643 -14.926081 9.3592859e-16 9.4167029
0.018806143 -0.05 -0.030374172 -14.591893 5.3365047e-16 9.6998841
0.0174474 -0.05 -0.029626241 -14.219194 -3.4391958e-18 9.9757224
0.016123548 -0.05 -0.028861869 -13.807853 6.3732788e-17 10.240272
0.01483551 -0.05 -0.028080184 -13.35504 -4.8739321e-17 10.488889
0.013584381 -0.05 -0.027280293 -12.858812 -2.8195563e-16 10.715782
0.012371455 -0.05 -0.026461261 -12.314945 1.0293155e-15 10.916677
0.011198253 -0.05 -0.025622046 -11.718896 1.5970292e-16 11.083876
0.010066487 -0.05 -0.02476154 -11.065272 -1.9294694e-16 11.204021
0.008978195 -0.05 -0.023878822 -10.353616 1.824301e-16 11.265514
0.0079358365 -0.05 -0.022972974 -9.5824462 -6.6806655e-16 11.253766
0.0069421072 -0.05 -0.022042818 -8.7520826 5.4036818e-16 11.154205
0.0060000393 -0.05 -0.021087528 -7.8713998 2.1947379e-16 10.956148
0.0051133578 -0.05 -0.020106814 -6.9496572 -2.7869325e-16 10.641543
0.0042859184 -0.05 -0.019100171 -5.9981987 -2.6960646e-16 10.191177
0.0035218122 -0.05 -0.018067639 -5.0394318 3.0043337e-16 9.5956213
0.0028258196 -0.05 -0.017010377 -4.0970292 4.7139475e-16 8.8496354
0.0022025621 -0.05 -0.015929703 -3.1982176 -2.2333882e-16 7.9530776
0.0016564625 -0.05 -0.014827967 -2.3703492 -8.7135828e-17 6.9203702
0.0011915815 -0.05 -0.01370907 -1.6391879 5.391812e-16 5.7842603
0.00081114677 -0.05 -0.012577306 -1.0357714 -5.9752233e-17 4.5884019
0.00051708996 -0.05 -0.011437916 -0.61388488 -2.726635e-16 3.3861559
0.00030970007 -0.05 -0.010296954 -0.35609524 -4.0696558e-17 2.2216334
0.00018768728 -0.05 -0.0091605307 -0.20658497 4.0171479e-17 1.2444359
0.99646767 -0.05 0.0252265 -0.013528108 3.2691595e-16 -0.25088492
0.99028899 -0.05 0.024117581 0.0052216939 -7.4651668e-16 -0.00030417007
0.98410905 -0.05 0.023015611 0.0057904419 -1.244926e-15 0.00085495616
0.97792789 -0.05 0.021920563 -0.00031643593 -4.4077297e-16 -0.00010586446
0.97174552 -0.05 0.020832332 0.0034900206 4.0169694e-16 0.0003874045
0.96556199 -0.05 0.019750761 0.0018036203 1.7539466e-16 0.00014061757
0.9593773 -0.05 0.018675867 0.002745979 -3.2827171e-16 0.0003174462
0.95319145 -0.05 0.017607586 0.0023856369 -5.8279339e-16 0.00023003861
0.9470045 -0.05 0.016545766 0.0026735689 -9.3294372e-17 0.00028696717
0.94081644 -0.05 0.015490323 0.0026198707 4.0760726e-16 0.0002653356
0.93462731 -0.05 0.014441252 0.0027516586 2.6880903e-16 0.0002934468
0.92843712 -0.05 0.013398492 0.0028152235 -2.4628028e-16 0.00028800175
0.92224587 -0.05 0.012361969 0.0029172637 -5.1679432e-17 0.00030950455
0.91605359 -0.05 0.011331647 0.0029915968 6.8050605e-16 0.00030844244
0.90986031 -0.05 0.010307377 0.0031015683 -8.5865396e-16 0.0003298996
0.90366603 -0.05 0.0092891617 0.0031952179 -7.3559673e-16 0.00033936998
0.89747075 -0.05 0.0082769691 0.003371567 8.2659511e-16 0.00034959963
0.89127453 -0.05 0.0072706648 0.0034558331 -7.5773573e-16 0.00034778154
0.88507735 -0.05 0.0062702349 0.0036195596 6.9550773e-16 0.00036858287
0.87887921 -0.05 0.0052757362 0.003722168 3.5494105e-16 0.00037073316
0.87268016 -0.05 0.0042870322 0.0038643216 2.7742672e-16 0.00038562424
0.86648019 -0.05 0.0033040551 0.0040663542 -6.2154743e-16 0.00038494472
0.86027931 -0.05 0.0023268338 0.0043523018 2.4753876e-16 0.00039742398
0.85407753 -0.05 0.0013552822 0.0046498759 -4.8617088e-16 0.00038994211
0.84787488 -0.05 0.00038933819 0.0050243332 -1.1893875e-15 0.00040137553
0.84167136 -0.05 -0.00057098434 0.0060874757 5.4035312e-16 0.00042441665
0.83546697 -0.05 -0.0015256491 0.0077363797 6.9288473e-16 0.00077539743
0.82926173 -0.05 -0.0024748306 0.0071403565 -6.7214072e-16 0.00071941545
0.82305565 -0.05 -0.0034184888 0.0079691548 -5.9302215e-17 0.00082853513
0.81684873 -0.05 -0.0043565771 0.0074627252 -7.1905694e-16 0.00073327705
0.81064099 -0.05 -0.0052891747 0.0076318373 -1.0393226e-15 0.00074477999
0.80443241 -0.05 -0.0062162908 0.0073135902 2.1145386e-16 0.00069072536
0.79822302 -0.05 -0.007137957 0.0068260986 -9.6638955e-16 0.00060290685
0.79201283 -0.05 -0.008054128 0.0061118047 1.0243773e-15 0.00046365177
0.78580184 -0.05 -0.0089648899 0.0050433153 -5.9335781e-18 0.00028266757
0.77959006 -0.05 -0.0098702077 0.0035403713 -4.5692632e-16 4.8381215e-05
0.77337747 -0.05 -0.01077005 0.0015432578 -2.244512e-16 -0.00024618038
0.76716412 -0.05 -0.011664476 -0.0010169941 1.7244431e-16 -0.00059600359
0.76094997 -0.05 -0.012553474 -0.0040641494 7.2702401e-16 -0.00096019887
0.75473505 -0.05 -0.01343703 -0.0068917004 3.1415548e-16 -0.0013766124
0.74851935 -0.05 -0.01431512 -0.010193466 7.8126515e-17 -0.0018452527
0.74230288 -0.05 -0.015187726 -0.014106513 -1.2432471e-16 -0.0023932013
0.73608565 -0.05 -0.016054833 -0.018683879 5.7137244e-17 -0.0030213535
0.72986765 -0.05 -0.016916408 -0.02395745 -4.7022062e-16 -0.0037374429
0.72364889 -0.05 -0.017772481 -0.030013427 -3.4528721e-16 -0.0045481897
0.71742938 -0.05 -0.018623083 -0.036929497 -4.4760555e-16 -0.0054563707
0.71120909 -0.05 -0.019468041 -0.044702719 1.9789521e-16 -0.0064643746
0.70498805 -0.05 -0.020307404 -0.053496397 -7.7591837e-16 -0.007582121
0.69876625 -0.05 -0.021141137 -0.063716212 -9.6518626e-16 -0.0088678962
0.69254369 -0.05 -0.021969148 -0.075412281 3.2472419e-16 -0.010306329
0.68632037 -0.05 -0.022791494 -0.088720713 -2.8770803e-16 -0.011932357
0.6800963 -0.05 -0.023608074 -0.10346442 -2.548739e-16 -0.01371882
0.67387147 -0.05 -0.024418901 -0.11989781 -7.6600139e-16 -0.015689279
0.66764588 -0.05 -0.025223859 -0.13800078 -3.4237145e-16 -0.017829859
0.66141953 -0.05 -0.026022846 -0.15772815 -2.6874428e-16 -0.020144893
0.65519242 -0.05 -0.026815947 -0.17916518 5.8696887e-16 -0.022689906
0.64896455 -0.05 -0.027603076 -0.20348982 -9.9651832e-16 -0.025509091
0.64273591 -0.05 -0.028384066 -0.23062593 1.3501153e-15 -0.028564691
0.63650651 -0.05 -0.029158887 -0.26007252 -3.2605584e-17 -0.031871286
0.63027633 -0.05 -0.029927538 -0.29176011 -2.3522864e-16 -0.035388811
0.62404538 -0.05 -0.030689883 -0.32577615 2.3678038e-16 -0.039127634
0.61781365 -0.05 -0.031445838 -0.36205885 5.4052924e-16 -0.043049842
0.61158115 -0.05 -0.032195398 -0.40098433 4.5420286e-17 -0.047198563
0.60534787 -0.05 -0.032938419 -0.44239156 -8.9756436e-16 -0.051562802
0.59911381 -0.05 -0.033674832 -0.48656068 -6.302721e-16 -0.056169452
0.59287895 -0.05 -0.034404549 -0.53335036 7.7576645e-16 -0.060948468
0.58664331 -0.05 -0.035127482 -0.58295755 2.3273499e-16 -0.065938487
0.58040687 -0.05 -0.035843514 -0.63550555 3.4530024e-16 -0.071133449
0.57416962 -0.05 -0.036552502 -0.69101883 6.8985458e-16 -0.076551448
0.56793158 -0.05 -0.037254411 -0.74945496 2.7990028e-16 -0.082146073
0.56169273 -0.05 -0.03794912 -0.81087489 -3.3770017e-16 -0.087921912
0.55545306 -0.05 -0.038636468 -0.87534991 -5.3134409e-16 -0.093875582
0.54921258 -0.05 -0.039316383 -0.94356451 2.3876571e-16 -0.10007279
0.54297128 -0.05 -0.039988702 -1.0150836 -1.2948874e-16 -0.10641254
0.53672914 -0.05 -0.040653287 -1.0895314 -4.8346247e-16 -0.11288886
0.53048618 -0.05 -0.041310067 -1.1671115 9.42437e-16 -0.11948223
0.5242424 -0.05 -0.041958868 -1.2487444 1.1809984e-16 -0.12639626
0.51799776 -0.05 -0.042599551 -1.3392259 -2.4881949e-16 -0.13431178
0.51175229 -0.05 -0.043231947 -1.4456149 -1.4840629e-15 -0.14332018
0.50550597 -0.05 -0.043855918 -1.5574112 8.9685817e-16 -0.15184215
0.4992588 -0.05 -0.04447134 -1.6683375 3.2532209e-16 -0.15952615
0.49301077 -0.05 -0.045078016 -1.7807933 3.3167786e-16 -0.16748397
0.48676188 -0.05 -0.045675744 -1.8966165 3.0980549e-17 -0.17571547
0.48051213 -0.05 -0.046264397 -2.015775 -2.041e-16 -0.18387851
0.47426152 -0.05 -0.046843839 -2.1385805 3.2689525e-16 -0.19193932
0.46801004 -0.05 -0.047413819 -2.2651099 1.6785424e-16 -0.19985652
0.46175769 -0.05 -0.047974122 -2.3955457 -3.6605322e-16 -0.20765485
0.45550446 -0.05 -0.048524585 -2.5296254 -6.7849007e-16 -0.21531574
0.44925036 -0.05 -0.049065025 -2.6670694 -2.9419998e-16 -0.22275374
0.44299538 -0.05 -0.049595216 -2.8080691 2.9626391e-16 -0.2299061
0.43673952 -0.05 -0.050114919 -2.9530346 6.0151915e-16 -0.2367873
0.43048278 -0.05 -0.050623921 -3.1019062 6.2074593e-17 -0.24339147
0.42422516 -0.05 -0.051122025 -3.2543502 3.1803044e-16 -0.24965858
0.41796666 -0.05 -0.05160898 -3.4100591 3.355439e-16 -0.25548396
0.41170729 -0.05 -0.05208451 -3.5694101 -2.3897706e-16 -0.26084709
0.40544705 -0.05 -0.052548388 -3.7330799 -1.2782006e-16 -0.26576771
0.39918593 -0.05 -0.053000329 -3.9008008 2.8902153e-17 -0.27015842
0.39292394 -0.05 -0.053440024 -4.0715384 -2.2869438e-17 -0.27397318
0.38666109 -0.05 -0.053867257 -4.2456002 -3.5663861e-16 -0.27717152
0.38039738 -0.05 -0.054281787 -4.4239477 -3.8728198e-16 -0.27966484
0.37413282 -0.05 -0.054683216 -4.6065462 -6.3480454e-16 -0.28138313
0.36786742 -0.05 -0.055071222 -4.7924892 4.6909362e-16 -0.28237377
0.36160118 -0.05 -0.055445564 -4.9819266 -6.9100865e-16 -0.28249781
0.35533412 -0.05 -0.055805903 -5.1749852 -1.524392e-16 -0.28169285
0.34906626 -0.05 -0.056151883 -5.3720488 -2.8231795e-16 -0.27985838
0.3427976 -0.05 -0.056483117 -5.5735019 3.5814611e-16 -0.27697714
0.33652816 -0.05 -0.056799272 -5.7790699 4.5267207e-16 -0.27303323
0.33025795 -0.05 -0.057099959 -5.9882646 5.4653299e-17 -0.26782795
0.32398702 -0.05 -0.057384751 -6.2004754 3.5903803e-17 -0.26136426
0.31771535 -0.05 -0.057653257 -6.4167304 -1.343412e-16 -0.2535755
0.311443 -0.05 -0.057905063 -6.6370548 7.4855325e-17 -0.24471067
0.30516997 -0.05 -0.058139731 -6.8059914 6.0034938e-17 -0.23245281
0.29507032 -0.05 0.061589734 -7.092782 2.7909011e-16 -0.25350242
0.28943689 -0.05 0.061382521 -6.9529347 2.41223e-16 -0.26660462
0.28388512 -0.05 0.061163732 -6.8752819 2.9265001e-16 -0.28177901
0.27841384 -0.05 0.06093354 -6.7957412 3.1180805e-16 -0.29673443
0.27302197 -0.05 0.060692172 -6.7220745 2.9461749e-16 -0.31161562
0.26770836 -0.05 0.060439888 -6.6521941 5.3291219e-17 -0.32651966
0.26247194 -0.05 0.060176927 -6.5863705 -6.8795018e-17 -0.34140291
0.25731164 -0.05 0.059903497 -6.5240582 3.0580279e-16 -0.3563695
0.25222638 -0.05 0.059619849 -6.4650787 2.7640073e-16 -0.3712818
0.24721513 -0.05 0.059326194 -6.4094415 2.2695444e-16 -0.38638891
0.24227687 -0.05 0.059022682 -6.3564241 -8.4611545e-17 -0.40146501
0.23741057 -0.05 0.058709559 -6.3061616 1.1307508e-16 -0.41658692
0.23261524 -0.05 0.058387031 -6.2580348 4.4996133e-16 -0.43169448
0.22788989 -0.05 0.058055328 -6.2115014 -2.3363509e-16 -0.44684747
0.22323354 -0.05 0.057714663 -6.1676233 -2.5254489e-16 -0.46220884
0.21864524 -0.05 0.057365173 -6.1260141 -5.375127e-17 -0.47770788
0.21412405 -0.05 0.057007093 -6.0868124 2.0091933e-16 -0.49325535
0.20966903 -0.05 0.056640612 -6.0501902 -3.6590682e-17 -0.50913003
0.20527928 -0.05 0.056265834 -6.0152898 -4.5056802e-16 -0.52508566
0.20095389 -0.05 0.055882992 -5.9825749 1.0281315e-16 -0.54117907
0.19669197 -0.05 0.055492271 -5.9521391 -2.1421018e-16 -0.55751405
0.19249264 -0.05 0.055093873 -5.9239268 1.5623603e-16 -0.57401456
0.18835504 -0.05 0.054687972 -5.8981179 1.5369499e-16 -0.59093683
0.18427833 -0.05 0.054274624 -5.8738435 3.7378684e-16 -0.60807867
0.18026164 -0.05 0.053854053 -5.85162 -2.8078171e-16 -0.62538918
0.17630419 -0.05 0.053426424 -5.8318063 1.7991027e-16 -0.6431899
0.17240514 -0.05 0.052991869 -5.8136619 5.7764782e-18 -0.66114685
0.16856368 -0.05 0.05255057 -5.7978616 -3.1086227e-16 -0.67958179
0.16477902 -0.05 0.052102661 -5.7839305 -1.5880304e-16 -0.69835761
0.1610504 -0.05 0.051648254 -5.771637 -2.0576736e-17 -0.71759977
0.15737705 -0.05 0.051187454 -5.7603272 4.6438709e-17 -0.73703203
0.15375822 -0.05 0.05072046 -5.7507189 3.3719054e-16 -0.75687934
0.15019316 -0.05 0.050247362 -5.7427651 7.1817756e-17 -0.77727993
0.14668114 -0.05 0.049768276 -5.7363504 3.6870886e-17 -0.79811075
0.14322143 -0.05 0.049283328 -5.7318681 2.5834673e-17 -0.8196108
0.13981334 -0.05 0.048792587 -5.7288471 3.0961629e-16 -0.8415863
0.13645616 -0.05 0.048296188 -5.7274996 2.8513861e-16 -0.86413121
0.13314923 -0.05 0.047794225 -5.727601 3.6207112e-16 -0.8872059
0.12989183 -0.05 0.047286843 -5.7291787 -1.6042604e-16 -0.91082651
0.12668332 -0.05 0.046774129 -5.7323161 -2.0253958e-16 -0.93523033
0.12352306 -0.05 0.046256088 -5.7358305 1.2038888e-16 -0.9599572
0.12041038 -0.05 0.04573288 -5.740487 3.8879629e-16 -0.98525491
0.11734465 -0.05 0.045204606 -5.747074 1.4188357e-16 -1.0115852
0.11432526 -0.05 0.044671257 -5.754946 9.1487233e-17 -1.0387152
0.11135161 -0.05 0.04413289 -5.7639778 2.1219493e-16 -1.0665302
0.10842308 -0.05 0.043589613 -5.7738764 3.2256039e-17 -1.0950937
0.1055391 -0.05 0.043041439 -5.7842402 7.0497528e-16 -1.1243559
0.10269908 -0.05 0.042488439 -5.7949965 -9.3827686e-17 -1.1541158
0.09990244 -0.05 0.041930749 -5.8076957 -7.942658e-16 -1.1851855
0.097148631 -0.05 0.041368292 -5.8216039 -3.6114561e-16 -1.2172701
0.094437117 -0.05 0.040801102 -5.8369292 3.0727381e-17 -1.2502785
0.091767339 -0.05 0.040229301 -5.8545987 -3.3359025e-16 -1.284879
0.089138799 -0.05 0.039652789 -5.8722048 1.028642e-16 -1.3202415
0.086550974 -0.05 0.039071612 -5.8884903 -2.0642753e-16 -1.3559689
0.084003352 -0.05 0.038485813 -5.9047017 1.5670177e-16 -1.3926894
0.081495437 -0.05 0.037895403 -5.9205056 4.1802887e-17 -1.4301966
0.079026742 -0.05 0.037300405 -5.9378506 -5.9489311e-16 -1.4695797
0.076596822 -0.05 0.036700696 -5.9559792 -4.9512959e-17 -1.5104076
0.074205219 -0.05 0.036096253 -5.9750303 5.6932909e-16 -1.5525686
0.071851467 -0.05 0.035487128 -5.9950441 2.707539e-16 -1.5961598
0.069535117 -0.05 0.034873323 -6.0160144 3.2170371e-16 -1.6415643
0.067255772 -0.05 0.034254711 -6.0365779 2.5456108e-16 -1.6881224
0.06501302 -0.05 0.033631234 -6.0563264 1.0630775e-16 -1.7357091
0.062806453 -0.05 0.033002872 -6.0766528 -6.0534436e-16 -1.7853083
0.060635696 -0.05 0.032369518 -6.097212 -4.4629234e-16 -1.8369484
0.058500383 -0.05 0.031731074 -6.1167551 -4.0758248e-16 -1.8902185
0.056400155 -0.05 0.031087461 -6.134555 3.8106443e-16 -1.9448308
0.054334675 -0.05 0.030438566 -6.1498302 7.353658e-17 -2.0006081
0.052303595 -0.05 0.029784339 -6.163954 -2.801182e-16 -2.0583018
0.050306631 -0.05 0.02912458 -6.1781009 -3.9749993e-18 -2.1184983
0.048343498 -0.05 0.028459125 -6.1915308 -8.2227378e-16 -2.1811758
0.046413897 -0.05 0.027787897 -6.2069934 -1.5440267e-16 -2.2474894
0.044517582 -0.05 0.027110703 -6.2214924 1.1826022e-16 -2.3166494
0.042654324 -0.05 0.026427345 -6.2352813 4.02118e-16 -2.389031
0.040823941 -0.05 0.025737541 -6.2455988 -4.4777047e-17 -2.4626953
0.039026244 -0.05 0.02504109 -6.2505744 -3.3316527e-16 -2.5371491
0.037261038 -0.05 0.024337831 -6.251366 -1.4329486e-16 -2.6148418
0.035528205 -0.05 0.023627476 -6.2501063 -8.1036817e-16 -2.6979186
0.033827654 -0.05 0.022909712 -6.2445044 5.2272218e-17 -2.7837789
0.032159322 -0.05 0.022184222 -6.2282725 -9.4458629e-16 -2.8691483
0.030523172 -0.05 0.021450689 -6.200314 1.5232549e-16 -2.9537775
0.02891921 -0.05 0.020708759 -6.1666319 -4.0076523e-16 -3.0406078
0.02734751 -0.05 0.019958004 -6.1352632 -3.4640984e-16 -3.1336983
0.025808157 -0.05 0.019198046 -6.1134014 9.3163671e-16 -3.2358217
0.024301319 -0.05 0.018428404 -6.0837403 -1.9690184e-16 -3.3367846
0.022827228 -0.05 0.017648571 -6.0245845 -5.2682135e-16 -3.427385
0.021386163 -0.05 0.016858049 -5.9197019 3.5176549e-16 -3.5067308
0.019978534 -0.05 0.016056225 -5.7604379 1.9874235e-16 -3.5785648
0.01860477 -0.05 0.015242545 -5.5471212 -8.6656651e-16 -3.6499793
0.017265472 -0.05 0.014416307 -5.3171256 1.5083657e-17 -3.7349686
0.015961334 -0.05 0.01357678 -5.1024955 4.2771007e-16 -3.8487324
0.014693134 -0.05 0.012723248 -4.9097064 -7.0534287e-17 -4.0085672
0.013461852 -0.05 0.011854906 -4.7325155 -4.4103977e-16 -4.2155131
0.012268644 -0.05 0.010970937 -4.5773954 -1.0844451e-15 -4.4650915
0.011114863 -0.05 0.010070497 -4.4540144 -2.764363e-16 -4.7496787
0.010002098 -0.05 0.0091526506 -4.3983812 -1.6770433e-16 -5.0678978
0.0089321363 -0.05 0.0082164112 -4.3891535 -5.7184347e-16 -5.4024343
0.0079070704 -0.05 0.0072609994 -4.3515578 1.0660381e-15 -5.6938235
0.0069294195 -0.05 0.0062856677 -4.2378489 -4.4007327e-16 -5.8992005
0.0060019529 -0.05 0.0052894285 -4.0269121 -5.5930518e-16 -6.0134938
0.0051277526 -0.05 0.0042716636 -3.7035152 -7.8197505e-16 -6.0089886
0.0043105549 -0.05 0.0032323411 -3.2993901 -7.1712851e-17 -5.866149
0.0035542408 -0.05 0.0021712216 -2.8325197 7.9140064e-17 -5.5747596
0.0028628892 -0.05 0.0010886261 -2.3356906 -3.4728473e-16 -5.1532888
0.0022411895 -0.05 -1.396077e-05 -1.8327615 3.1857349e-16 -4.5788602
0.0016936617 -0.05 -0.0011349067 -1.3500665 -2.6122381e-16 -3.8744195
0.0012245566 -0.05 -0.0022715633 -0.91701603 -1.9102252e-16 -3.065696
0.00083765741 -0.05 -0.0034197592 -0.56748488 -4.0556353e-17 -2.173179
0.00053588903 -0.05 -0.0045749896 -0.34240712 -1.0505429e-16 -1.2533322
0.00032081834 -0.05 -0.0057318915 -0.20101737 2.3822046e-17 -0.60163996
0.00019231784 -0.05 -0.0068844078 -0.14856878 -1.0107298e-16 -0.018802065
0.00014868073 -0.05 -0.0080265289 -0.1419266 5.2935885e-20 0.55718758
0.99643676 -0.05 0.026125321 -35.864136 1.9122297e-15 3.9360076
0.99019648 -0.05 0.026807061 -39.78123 -4.9355242e-17 4.3413107
0.98395542 -0.05 0.027481784 -40.592535 1.6995411e-15 4.336119
0.97771363 -0.05 0.028149515 -40.086971 1.4459251e-15 4.2511733
0.97147111 -0.05 0.028810364 -39.845485 9.4251547e-16 4.1808875
0.96522787 -0.05 0.029464489 -39.520862 1.022862e-16 4.1045897
0.95898392 -0.05 0.030111872 -39.207829 -7.4799113e-16 4.0293807
0.9527393 -0.05 0.030752578 -38.883767 9.9020133e-16 3.9551018
0.94649401 -0.05 0.031386762 -38.557527 1.2235128e-15 3.8815283
0.94024806 -0.05 0.032014511 -38.22754 1.2319165e-16 3.8088537
0.93400148 -0.05 0.032635827 -37.893868 1.6476519e-15 3.7364139
0.92775425 -0.05 0.033250774 -37.55633 -1.456133e-15 3.6652383
0.92150641 -0.05 0.033859427 -37.213762 2.5124812e-16 3.5942612
0.91525798 -0.05 0.034461822 -36.865307 2.955637e-16 3.5242461
0.90900895 -0.05 0.035058111 -36.511832 4.9960641e-16 3.4547688
0.90275934 -0.05 0.03564829 -36.15401 6.7485771e-16 3.385518
0.89650916 -0.05 0.036232394 -35.793775 -1.2440297e-17 3.3173111
0.89025844 -0.05 0.036810558 -35.434041 3.1463748e-16 3.2500835
0.88400717 -0.05 0.037382794 -35.076666 9.069176e-17 3.1835684
0.87775535 -0.05 0.037949049 -34.722134 -2.2002093e-16 3.1182317
0.871503 -0.05 0.038509459 -34.371495 3.0253413e-16 3.0547104
0.86525014 -0.05 0.039064093 -34.023515 1.2687183e-15 2.9919272
0.85899676 -0.05 0.039612921 -33.676462 6.4726223e-16 2.9303813
0.85274289 -0.05 0.040156033 -33.329184 9.6016978e-16 2.8697847
0.84648853 -0.05 0.04069349 -32.979621 1.5214143e-16 2.8098371
0.84023369 -0.05 0.041225279 -32.625459 -6.7931115e-16 2.7500255
0.83397836 -0.05 0.041751363 -32.265267 -6.8821007e-16 2.6906683
0.82772256 -0.05 0.042271919 -31.901956 -6.9397822e-17 2.6321528
0.82146632 -0.05 0.042786907 -31.537785 1.2136284e-16 2.5733805
0.81520961 -0.05 0.043296281 -31.176392 -7.6682219e-16 2.516081
0.80895244 -0.05 0.043800121 -30.819653 6.4092225e-16 2.4595551
0.80269484 -0.05 0.044298434 -30.467934 -4.5745102e-16 2.4044156
0.79643681 -0.05 0.044791255 -30.120726 -7.9227414e-16 2.3500962
0.79017833 -0.05 0.045278538 -29.776385 9.1175101e-16 2.2968729
0.78391945 -0.05 0.04576037 -29.432288 2.0162746e-16 2.2446063
0.77766014 -0.05 0.046236717 -29.083613 -3.4821161e-16 2.1923585
0.77140041 -0.05 0.046707546 -28.72704 -1.1720045e-15 2.1404995
0.76514027 -0.05 0.047172917 -28.363978 -3.8666818e-16 2.0885576
0.75887973 -0.05 0.04763282 -27.999389 -3.4137333e-17 2.0368985
0.75261878 -0.05 0.048087242 -27.640089 -4.6034502e-16 1.985995
0.74635744 -0.05 0.048536155 -27.28885 4.3950011e-16 1.9361666
0.74009571 -0.05 0.048979545 -26.945673 -3.8896924e-16 1.8875195
0.73383359 -0.05 0.049417397 -26.609059 -4.0676649e-16 1.8399906
0.72757108 -0.05 0.049849676 -26.275092 9.1522006e-16 1.7933834
0.72130819 -0.05 0.050276415 -25.938242 -3.5114324e-16 1.7475155
0.71504493 -0.05 0.050697644 -25.593181 1.5576476e-16 1.7015023
0.70878129 -0.05 0.051113188 -25.235897 1.0155865e-15 1.6548459
0.70251728 -0.05 0.0515231 -24.872571 5.123779e-16 1.6084986
0.69625289 -0.05 0.051927342 -24.513457 5.3172889e-16 1.5621072
0.68998814 -0.05 0.052325824 -24.164673 -3.8637135e-16 1.5172722
0.68372303 -0.05 0.052718602 -23.825244 1.0037636e-16 1.4733822
0.67745755 -0.05 0.053105577 -23.493076 4.4597698e-16 1.4305908
0.67119173 -0.05 0.05348676 -23.165896 -4.6098007e-16 1.3888556
0.66492554 -0.05 0.053862035 -22.835968 7.218524e-16 1.3474691
0.658659 -0.05 0.0542313 -22.492982 6.3222156e-17 1.3063848
0.65239212 -0.05 0.054594642 -22.13074 -6.3952635e-16 1.264718
0.64612489 -0.05 0.054951973 -21.753663 -2.2301938e-16 1.2219843
0.6398573 -0.05 0.055303128 -21.377875 9.8152127e-16 1.1794588
0.63358937 -0.05 0.055648074 -21.011301 3.1740026e-16 1.1379704
0.62732111 -0.05 0.055986813 -20.654199 -3.7650569e-16 1.0975126
0.62105251 -0.05 0.056319208 -20.306822 -6.0172548e-16 1.058055
0.61478356 -0.05 0.056645173 -19.967268 1.4803461e-16 1.0204027
0.60851429 -0.05 0.056964707 -19.627337 1.0062567e-15 0.98353572
0.60224468 -0.05 0.057277665 -19.271394 1.6215677e-16 0.94653864
0.59597475 -0.05 0.057583973 -18.885657 3.1864842e-16 0.90871423
0.58970449 -0.05 0.057883549 -18.486952 8.949719e-17 0.87008906
0.58343391 -0.05 0.058176302 -18.094115 -3.201456e-16 0.83213469
0.57716301 -0.05 0.058462117 -17.705308 1.5260946e-16 0.79446813
0.57089179 -0.05 0.058740847 -17.320549 2.9898738e-16 0.75721856
0.56462026 -0.05 0.059012461 -16.941898 -1.1405284e-16 0.72083134
0.55834842 -0.05 0.059276836 -16.571221 2.0271334e-16 0.68519823
0.55207627 -0.05 0.059533812 -16.205106 -1.4756495e-17 0.65042561
0.54580382 -0.05 0.059783316 -15.843463 1.771617e-16 0.61655074
0.53953107 -0.05 0.060025187 -15.485999 -3.5446056e-16 0.58331653
0.53325802 -0.05 0.060259283 -15.132163 1.1125268e-16 0.55102441
0.5269847 -0.05 0.060485537 -14.781886 2.3709759e-16 0.51943155
0.52071108 -0.05 0.060703775 -14.434113 2.8743693e-16 0.48851009
0.51443719 -0.05 0.060913855 -14.088488 2.7427488e-16 0.45831572
0.50816302 -0.05 0.061115609 -13.74613 -2.9936083e-16 0.42882616
0.50188858 -0.05 0.0613089 -13.410915 4.1385099e-16 0.40021017
0.4956139 -0.05 0.061493605 -13.08427 -1.4128829e-17 0.37235828
0.48933895 -0.05 0.061669526 -12.767736 -3.9421139e-17 0.34533934
0.48306376 -0.05 0.061836459 -12.461523 -4.3488769e-17 0.31922443
0.47678833 -0.05 0.06199428 -12.164534 3.6842746e-16 0.29395876
0.47051268 -0.05 0.062142854 -11.879877 2.411625e-16 0.26920305
0.46423681 -0.05 0.062281926 -11.609084 1.1121834e-16 0.24517284
0.45796074 -0.05 0.062411285 -11.352755 -6.5232273e-18 0.22203391
0.45168447 -0.05 0.062530768 -11.109467 9.7771014e-17 0.19974113
0.445408 -0.05 0.062640191 -10.875831 -4.9007573e-17 0.17807687
0.43913137 -0.05 0.062739329 -10.650523 -1.1487812e-16 0.15690145
0.43285459 -0.05 0.062827944 -10.432449 -5.8285037e-17 0.13621333
0.42657767 -0.05 0.062905822 -10.221352 -2.768997e-17 0.1160739
0.42030061 -0.05 0.062972768 -10.016933 3.519893e-17 0.096553494
0.41402345 -0.05 0.06302853 -9.8191215 1.6788318e-17 0.077452192
0.40774619 -0.05 0.063072835 -9.6272509 -5.2473911e-17 0.058577744
0.40146888 -0.05 0.063105455 -9.4413474 2.5999891e-17 0.038849415
0.3951915 -0.05 0.063126106 -9.2610315 2.362458e-18 0.019225902
0.38891409 -0.05 0.06313448 -9.0861126 -2.3537101e-18 0.00075775379
0.38263669 -0.05 0.063130363 -8.9164036 -1.1085689e-17 -0.017784952
0.3763593 -0.05 0.063113513 -8.7522827 4.2204153e-17 -0.036478787
0.37008197 -0.05 0.063083536 -8.5929143 -7.4119998e-18 -0.053338448
0.36380471 -0.05 0.063040108 -8.4381245 5.1048324e-17 -0.070182751
0.35752756 -0.05 0.062982993 -8.2881575 -3.3685155e-18 -0.087038636
0.35125056 -0.05 0.06291185 -8.1428973 -2.4921762e-17 -0.10381049
0.34497374 -0.05 0.062826328 -8.0020186 -4.8693009e-17 -0.12047335
0.33869713 -0.05 0.062726038 -7.865632 -1.3916712e-16 -0.13700506
0.33242078 -0.05 0.062610652 -7.73369 9.1389853e-17 -0.1533755
0.32614473 -0.05 0.062479782 -7.6062142 5.0147848e-17 -0.16999242
0.31986905 -0.05 0.062333005 -7.4823988 4.7501734e-17 -0.18648137
0.31359377 -0.05 0.062169931 -7.3623843 -1.562594e-16 -0.20297313
0.30731893 -0.05 0.061990147 -7.2500179 -4.2232316e-17 -0.21956707
0.30104461 -0.05 0.061793222 -7.1956457 -1.2304907e-16 -0.23709141
