# yPlus  FACE_DATA 448
# x y z  yPlus
0.29919582 -0.05 -0.058347237 22.659844
0.29356147 -0.05 -0.058527604 23.068034
0.28800778 -0.05 -0.058690814 23.281284
0.28253362 -0.05 -0.058837114 23.49354
0.2771379 -0.05 -0.05896681 23.700183
0.27181952 -0.05 -0.059080238 23.903557
0.26657741 -0.05 -0.059177709 24.102527
0.26141051 -0.05 -0.059259506 24.29758
0.2563178 -0.05 -0.059325952 24.487319
0.25129822 -0.05 -0.05937733 24.672674
0.24635076 -0.05 -0.059413861 24.85347
0.24147446 -0.05 -0.059435856 25.029493
0.2366683 -0.05 -0.059443593 25.199187
0.23193131 -0.05 -0.059437369 25.362913
0.22726256 -0.05 -0.059417462 25.523068
0.22266109 -0.05 -0.059384075 25.679814
0.21812598 -0.05 -0.059337506 25.83274
0.21365631 -0.05 -0.05927801 25.982729
0.20925118 -0.05 -0.059205752 26.128582
0.20490971 -0.05 -0.059121026 26.271206
0.20063102 -0.05 -0.059024079 26.410724
0.19641425 -0.05 -0.058915172 26.54738
0.19225853 -0.05 -0.058794538 26.68144
0.18816304 -0.05 -0.058662291 26.811276
0.18412697 -0.05 -0.058518714 26.937113
0.18014948 -0.05 -0.058364026 27.05976
0.17622978 -0.05 -0.058198414 27.178011
0.17236707 -0.05 -0.058022117 27.292957
0.16856059 -0.05 -0.057835322 27.403167
0.16480955 -0.05 -0.057638194 27.508747
0.16111323 -0.05 -0.057430891 27.608536
0.15747085 -0.05 -0.057213663 27.703734
0.15388171 -0.05 -0.056986649 27.794869
0.15034507 -0.05 -0.056750018 27.881766
0.14686022 -0.05 -0.056503943 27.966305
0.14342647 -0.05 -0.056248543 28.048922
0.14004311 -0.05 -0.055984 28.13125
0.13670951 -0.05 -0.055710454 28.213267
0.13342495 -0.05 -0.055428098 28.292058
0.13018879 -0.05 -0.055137063 28.36684
0.1270004 -0.05 -0.054837398 28.433743
0.12385912 -0.05 -0.054529309 28.492194
0.12076433 -0.05 -0.054212938 28.541302
0.11771544 -0.05 -0.053888323 28.580782
0.11471182 -0.05 -0.053555557 28.613269
0.11175289 -0.05 -0.053214792 28.643471
0.10883806 -0.05 -0.052866081 28.676904
0.10596675 -0.05 -0.052509535 28.714391
0.1031384 -0.05 -0.05214533 28.759451
0.10035245 -0.05 -0.051773425 28.811957
0.097608372 -0.05 -0.051393893 28.866713
0.094905614 -0.05 -0.051006893 28.926264
0.092243673 -0.05 -0.05061236 28.989034
0.08962203 -0.05 -0.050210373 29.051587
0.087040176 -0.05 -0.049801014 29.118728
0.084497621 -0.05 -0.049384327 29.187562
0.081993876 -0.05 -0.048960367 29.261766
0.079528491 -0.05 -0.048529043 29.338026
0.077101009 -0.05 -0.048090363 29.415104
0.074710964 -0.05 -0.047644412 29.492978
0.072357913 -0.05 -0.047191222 29.572839
0.070041448 -0.05 -0.046730693 29.652287
0.067761156 -0.05 -0.046262796 29.728443
0.065516627 -0.05 -0.045787539 29.802883
0.06330748 -0.05 -0.045304842 29.873743
0.061133345 -0.05 -0.044814631 29.939685
0.058993857 -0.05 -0.044316854 29.999577
0.056888671 -0.05 -0.043811418 30.054394
0.054817437 -0.05 -0.043298299 30.102208
0.052779858 -0.05 -0.042777317 30.148581
0.050775641 -0.05 -0.042248328 30.186492
0.048804478 -0.05 -0.041711276 30.222968
0.046866113 -0.05 -0.041165983 30.254022
0.044960303 -0.05 -0.040612272 30.280488
0.043086848 -0.05 -0.04004987 30.300937
0.041245544 -0.05 -0.03947859 30.313882
0.039436187 -0.05 -0.038898286 30.338637
0.037658639 -0.05 -0.038308678 30.354046
0.035912787 -0.05 -0.037709461 30.352053
0.034198548 -0.05 -0.037100323 30.352492
0.032515861 -0.05 -0.036480949 30.351277
0.03086471 -0.05 -0.035850986 30.349312
0.029245138 -0.05 -0.035210002 30.341822
0.027657205 -0.05 -0.034557613 30.331047
0.026101044 -0.05 -0.03389333 30.31874
0.024576851 -0.05 -0.03321663 30.302175
0.023084874 -0.05 -0.032526997 30.283102
0.021625476 -0.05 -0.031823791 30.261889
0.020199048 -0.05 -0.03110643 30.234551
0.018806143 -0.05 -0.030374172 30.207751
0.0174474 -0.05 -0.029626241 30.170801
0.016123548 -0.05 -0.028861869 30.131343
0.01483551 -0.05 -0.028080184 30.081655
0.013584381 -0.05 -0.027280293 30.022307
0.012371455 -0.05 -0.026461261 29.94604
0.011198253 -0.05 -0.025622046 29.856713
0.010066487 -0.05 -0.02476154 29.733317
0.008978195 -0.05 -0.023878822 29.568251
0.0079358365 -0.05 -0.022972974 29.347918
0.0069421072 -0.05 -0.022042818 29.05782
0.0060000393 -0.05 -0.021087528 28.676524
0.0051133578 -0.05 -0.020106814 28.187047
0.0042859184 -0.05 -0.019100171 27.548791
0.0035218122 -0.05 -0.018067639 26.731856
0.0028258196 -0.05 -0.017010377 25.699909
0.0022025621 -0.05 -0.015929703 24.410499
0.0016564625 -0.05 -0.014827967 22.819975
0.0011915815 -0.05 -0.01370907 20.903096
0.00081114677 -0.05 -0.012577306 18.643752
0.00051708996 -0.05 -0.011437916 16.024719
0.00030970007 -0.05 -0.010296954 12.96462
0.00018768728 -0.05 -0.0091605307 9.6695634
0.99646767 -0.05 0.0252265 4.3619433
0.99028899 -0.05 0.024117581 0.61902077
0.98410905 -0.05 0.023015611 0.6579615
0.97792789 -0.05 0.021920563 0.15714994
0.97174552 -0.05 0.020832332 0.50916408
0.96556199 -0.05 0.019750761 0.36536844
0.9593773 -0.05 0.018675867 0.4515566
0.95319145 -0.05 0.017607586 0.42089721
0.9470045 -0.05 0.016545766 0.44521425
0.94081644 -0.05 0.015490323 0.44113597
0.93462731 -0.05 0.014441252 0.45140091
0.92843712 -0.05 0.013398492 0.45709051
0.92224587 -0.05 0.012361969 0.46452204
0.91605359 -0.05 0.011331647 0.4713986
0.90986031 -0.05 0.010307377 0.47934491
0.90366603 -0.05 0.0092891617 0.48742919
0.89747075 -0.05 0.0082769691 0.49982754
0.89127453 -0.05 0.0072706648 0.50637225
0.88507735 -0.05 0.0062702349 0.51755542
0.87887921 -0.05 0.0052757362 0.52515684
0.87268016 -0.05 0.0042870322 0.53460445
0.86648019 -0.05 0.0033040551 0.54891858
0.86027931 -0.05 0.0023268338 0.56731008
0.85407753 -0.05 0.0013552822 0.58686569
0.84787488 -0.05 0.00038933819 0.60944792
0.84167136 -0.05 -0.00057098434 0.67059081
0.83546697 -0.05 -0.0015256491 0.75682544
0.82926173 -0.05 -0.0024748306 0.72741162
0.82305565 -0.05 -0.0034184888 0.7682954
0.81684873 -0.05 -0.0043565771 0.74389959
0.81064099 -0.05 -0.0052891747 0.75189337
0.80443241 -0.05 -0.0062162908 0.7363692
0.79822302 -0.05 -0.007137957 0.71088995
0.79201283 -0.05 -0.008054128 0.67238173
0.78580184 -0.05 -0.0089648899 0.60996649
0.77959006 -0.05 -0.0098702077 0.51026715
0.77337747 -0.05 -0.01077005 0.33638521
0.76716412 -0.05 -0.011664476 0.29047011
0.76094997 -0.05 -0.012553474 0.55474285
0.75473505 -0.05 -0.01343703 0.72026288
0.74851935 -0.05 -0.01431512 0.87451215
0.74230288 -0.05 -0.015187726 1.0279976
0.73608565 -0.05 -0.016054833 1.1823692
0.72986765 -0.05 -0.016916408 1.338501
0.72364889 -0.05 -0.017772481 1.4977639
0.71742938 -0.05 -0.018623083 1.6613681
0.71120909 -0.05 -0.019468041 1.8275992
0.70498805 -0.05 -0.020307404 1.9991302
0.69876625 -0.05 -0.021141137 2.1812853
0.69254369 -0.05 -0.021969148 2.3731485
0.68632037 -0.05 -0.022791494 2.573929
0.6800963 -0.05 -0.023608074 2.7798192
0.67387147 -0.05 -0.024418901 2.9922763
0.66764588 -0.05 -0.025223859 3.2105724
0.66141953 -0.05 -0.026022846 3.4323448
0.65519242 -0.05 -0.026815947 3.6584064
0.64896455 -0.05 -0.027603076 3.8985934
0.64273591 -0.05 -0.028384066 4.1508179
0.63650651 -0.05 -0.029158887 4.4078592
0.63027633 -0.05 -0.029927538 4.6688971
0.62404538 -0.05 -0.030689883 4.9333884
0.61781365 -0.05 -0.031445838 5.2011393
0.61158115 -0.05 -0.032195398 5.4734631
0.60534787 -0.05 -0.032938419 5.7490487
0.59911381 -0.05 -0.033674832 6.0287222
0.59287895 -0.05 -0.034404549 6.3122906
0.58664331 -0.05 -0.035127482 6.5991901
0.58040687 -0.05 -0.035843514 6.8902577
0.57416962 -0.05 -0.036552502 7.184608
0.56793158 -0.05 -0.037254411 7.4823663
0.56169273 -0.05 -0.03794912 7.7827184
0.55545306 -0.05 -0.038636468 8.0861061
0.54921258 -0.05 -0.039316383 8.3948302
0.54297128 -0.05 -0.039988702 8.7073324
0.53672914 -0.05 -0.040653287 9.0208261
0.53048618 -0.05 -0.041310067 9.3363741
0.5242424 -0.05 -0.041958868 9.6570105
0.51799776 -0.05 -0.042599551 10.000637
0.51175229 -0.05 -0.043231947 10.389915
0.50550597 -0.05 -0.043855918 10.783781
0.4992588 -0.05 -0.04447134 11.160529
0.49301077 -0.05 -0.045078016 11.530278
0.48676188 -0.05 -0.045675744 11.898952
0.48051213 -0.05 -0.046264397 12.266742
0.47426152 -0.05 -0.046843839 12.634389
0.46801004 -0.05 -0.047413819 13.002466
0.46175769 -0.05 -0.047974122 13.371101
0.45550446 -0.05 -0.048524585 13.73974
0.44925036 -0.05 -0.049065025 14.107447
0.44299538 -0.05 -0.049595216 14.475096
0.43673952 -0.05 -0.050114919 14.843366
0.43048278 -0.05 -0.050623921 15.212328
0.42422516 -0.05 -0.051122025 15.580911
0.41796666 -0.05 -0.05160898 15.948739
0.41170729 -0.05 -0.05208451 16.316293
0.40544705 -0.05 -0.052548388 16.685369
0.39918593 -0.05 -0.053000329 17.055163
0.39292394 -0.05 -0.053440024 17.423742
0.38666109 -0.05 -0.053867257 17.791387
0.38039738 -0.05 -0.054281787 18.160417
0.37413282 -0.05 -0.054683216 18.530444
0.36786742 -0.05 -0.055071222 18.899928
0.36160118 -0.05 -0.055445564 19.268673
0.35533412 -0.05 -0.055805903 19.637498
0.34906626 -0.05 -0.056151883 20.006663
0.3427976 -0.05 -0.056483117 20.377283
0.33652816 -0.05 -0.056799272 20.748357
0.33025795 -0.05 -0.057099959 21.119356
0.32398702 -0.05 -0.057384751 21.488765
0.31771535 -0.05 -0.057653257 21.859062
0.311443 -0.05 -0.057905063 22.230985
0.30516997 -0.05 -0.058139731 22.410353
0.29507032 -0.05 0.061589734 23.035656
0.28943689 -0.05 0.061382521 22.616257
0.28388512 -0.05 0.061163732 22.388675
0.27841384 -0.05 0.06093354 22.159816
0.27302197 -0.05 0.060692172 21.943879
0.26770836 -0.05 0.060439888 21.736641
0.26247194 -0.05 0.060176927 21.539195
0.25731164 -0.05 0.059903497 21.3502
0.25222638 -0.05 0.059619849 21.169597
0.24721513 -0.05 0.059326194 20.99699
0.24227687 -0.05 0.059022682 20.831494
0.23741057 -0.05 0.058709559 20.67289
0.23261524 -0.05 0.058387031 20.520412
0.22788989 -0.05 0.058055328 20.372818
0.22323354 -0.05 0.057714663 20.232055
0.21864524 -0.05 0.057365173 20.0973
0.21412405 -0.05 0.057007093 19.968684
0.20966903 -0.05 0.056640612 19.846491
0.20527928 -0.05 0.056265834 19.729351
0.20095389 -0.05 0.055882992 19.617722
0.19669197 -0.05 0.055492271 19.511885
0.19249264 -0.05 0.055093873 19.411594
0.18835504 -0.05 0.054687972 19.317296
0.18427833 -0.05 0.054274624 19.227396
0.18026164 -0.05 0.053854053 19.142566
0.17630419 -0.05 0.053426424 19.063598
0.17240514 -0.05 0.052991869 18.988872
0.16856368 -0.05 0.05255057 18.919744
0.16477902 -0.05 0.052102661 18.855107
0.1610504 -0.05 0.051648254 18.794893
0.15737705 -0.05 0.051187454 18.73767
0.15375822 -0.05 0.05072046 18.684514
0.15019316 -0.05 0.050247362 18.635795
0.14668114 -0.05 0.049768276 18.590752
0.14322143 -0.05 0.049283328 18.550345
0.13981334 -0.05 0.048792587 18.513366
0.13645616 -0.05 0.048296188 18.480308
0.13314923 -0.05 0.047794225 18.450977
0.12989183 -0.05 0.047286843 18.424822
0.12668332 -0.05 0.046774129 18.402482
0.12352306 -0.05 0.046256088 18.381887
0.12041038 -0.05 0.04573288 18.363765
0.11734465 -0.05 0.045204606 18.34995
0.11432526 -0.05 0.044671257 18.339177
0.11135161 -0.05 0.04413289 18.331152
0.10842308 -0.05 0.043589613 18.325118
0.1055391 -0.05 0.043041439 18.321241
0.10269908 -0.05 0.042488439 18.318058
0.09990244 -0.05 0.041930749 18.318915
0.097148631 -0.05 0.041368292 18.32292
0.094437117 -0.05 0.040801102 18.329258
0.091767339 -0.05 0.040229301 18.340103
0.089138799 -0.05 0.039652789 18.352226
0.086550974 -0.05 0.039071612 18.361887
0.084003352 -0.05 0.038485813 18.37291
0.081495437 -0.05 0.037895403 18.383165
0.079026742 -0.05 0.037300405 18.397376
0.076596822 -0.05 0.036700696 18.413747
0.074205219 -0.05 0.036096253 18.432143
0.071851467 -0.05 0.035487128 18.452136
0.069535117 -0.05 0.034873323 18.47474
0.067255772 -0.05 0.034254711 18.497878
0.06501302 -0.05 0.033631234 18.520211
0.062806453 -0.05 0.033002872 18.544817
0.060635696 -0.05 0.032369518 18.571239
0.058500383 -0.05 0.031731074 18.597293
0.056400155 -0.05 0.031087461 18.62202
0.054334675 -0.05 0.030438566 18.644522
0.052303595 -0.05 0.029784339 18.666289
0.050306631 -0.05 0.02912458 18.691905
0.048343498 -0.05 0.028459125 18.717236
0.046413897 -0.05 0.027787897 18.748695
0.044517582 -0.05 0.027110703 18.781223
0.042654324 -0.05 0.026427345 18.816462
0.040823941 -0.05 0.025737541 18.850131
0.039026244 -0.05 0.02504109 18.878665
0.037261038 -0.05 0.024337831 18.905854
0.035528205 -0.05 0.023627476 18.936932
0.033827654 -0.05 0.022909712 18.966846
0.032159322 -0.05 0.022184222 18.987168
0.030523172 -0.05 0.021450689 18.996123
0.02891921 -0.05 0.020708759 19.005306
0.02734751 -0.05 0.019958004 19.02736
0.025808157 -0.05 0.019198046 19.072057
0.024301319 -0.05 0.018428404 19.114609
0.022827228 -0.05 0.017648571 19.1228
0.021386163 -0.05 0.016858049 19.07854
0.019978534 -0.05 0.016056225 18.975509
0.01860477 -0.05 0.015242545 18.817163
0.017265472 -0.05 0.014416307 18.663878
0.015961334 -0.05 0.01357678 18.566026
0.014693134 -0.05 0.012723248 18.555596
0.013461852 -0.05 0.011854906 18.628967
0.012268644 -0.05 0.010970937 18.798079
0.011114863 -0.05 0.010070497 19.066387
0.010002098 -0.05 0.0091526506 19.475622
0.0089321363 -0.05 0.0082164112 19.981318
0.0079070704 -0.05 0.0072609994 20.449779
0.0069294195 -0.05 0.0062856677 20.790909
0.0060019529 -0.05 0.0052894285 20.979217
0.0051277526 -0.05 0.0042716636 20.955246
0.0043105549 -0.05 0.0032323411 20.714098
0.0035542408 -0.05 0.0021712216 20.222442
0.0028628892 -0.05 0.0010886261 19.488311
0.0022411895 -0.05 -1.396077e-05 18.429979
0.0016936617 -0.05 -0.0011349067 17.017768
0.0012245566 -0.05 -0.0022715633 15.197664
0.00083765741 -0.05 -0.0034197592 12.851344
0.00053588903 -0.05 -0.0045749896 9.8066744
0.00032081834 -0.05 -0.0057318915 6.8318877
0.00019231784 -0.05 -0.0068844078 2.4535042
0.00014868073 -0.05 -0.0080265289 6.4655147
0.99643676 -0.05 0.026125321 44.260409
0.99019648 -0.05 0.026807061 54.393042
0.98395542 -0.05 0.027481784 54.837723
0.97771363 -0.05 0.028149515 54.497415
0.97147111 -0.05 0.028810364 54.335406
0.96522787 -0.05 0.029464489 54.113969
0.95898392 -0.05 0.030111872 53.900232
0.9527393 -0.05 0.030752578 53.677251
0.94649401 -0.05 0.031386762 53.452087
0.94024806 -0.05 0.032014511 53.223293
0.93400148 -0.05 0.032635827 52.990911
0.92775425 -0.05 0.033250774 52.754644
0.92150641 -0.05 0.033859427 52.514301
0.91525798 -0.05 0.034461822 52.268328
0.90900895 -0.05 0.035058111 52.017503
0.90275934 -0.05 0.03564829 51.762578
0.89650916 -0.05 0.036232394 51.504313
0.89025844 -0.05 0.036810558 51.244991
0.88400717 -0.05 0.037382794 50.986364
0.87775535 -0.05 0.037949049 50.728516
0.871503 -0.05 0.038509459 50.471827
0.86525014 -0.05 0.039064093 50.216063
0.85899676 -0.05 0.039612921 49.959664
0.85274289 -0.05 0.040156033 49.701915
0.84648853 -0.05 0.04069349 49.440873
0.84023369 -0.05 0.041225279 49.174921
0.83397836 -0.05 0.041751363 48.903132
0.82772256 -0.05 0.042271919 48.627271
0.82146632 -0.05 0.042786907 48.349438
0.81520961 -0.05 0.043296281 48.071744
0.80895244 -0.05 0.043800121 47.796264
0.80269484 -0.05 0.044298434 47.522975
0.79643681 -0.05 0.044791255 47.251758
0.79017833 -0.05 0.045278538 46.981162
0.78391945 -0.05 0.04576037 46.709029
0.77766014 -0.05 0.046236717 46.431927
0.77140041 -0.05 0.046707546 46.14664
0.76514027 -0.05 0.047172917 45.854531
0.75887973 -0.05 0.04763282 45.559241
0.75261878 -0.05 0.048087242 45.266144
0.74635744 -0.05 0.048536155 44.977904
0.74009571 -0.05 0.048979545 44.694481
0.73383359 -0.05 0.049417397 44.414531
0.72757108 -0.05 0.049849676 44.135151
0.72130819 -0.05 0.050276415 43.851449
0.71504493 -0.05 0.050697644 43.55914
0.70878129 -0.05 0.051113188 43.254546
0.70251728 -0.05 0.0515231 42.942178
0.69625289 -0.05 0.051927342 42.63148
0.68998814 -0.05 0.052325824 42.327288
0.68372303 -0.05 0.052718602 42.029213
0.67745755 -0.05 0.053105577 41.735512
0.67119173 -0.05 0.05348676 41.443818
0.66492554 -0.05 0.053862035 41.148017
0.658659 -0.05 0.0542313 40.838173
0.65239212 -0.05 0.054594642 40.508582
0.64612489 -0.05 0.054951973 40.162578
0.6398573 -0.05 0.055303128 39.814603
0.63358937 -0.05 0.055648074 39.472159
0.62732111 -0.05 0.055986813 39.135516
0.62105251 -0.05 0.056319208 38.805162
0.61478356 -0.05 0.056645173 38.479721
0.60851429 -0.05 0.056964707 38.151222
0.60224468 -0.05 0.057277665 37.804424
0.59597475 -0.05 0.057583973 37.424681
0.58970449 -0.05 0.057883549 37.028408
0.58343391 -0.05 0.058176302 36.6337
0.57716301 -0.05 0.058462117 36.238803
0.57089179 -0.05 0.058740847 35.843567
0.56462026 -0.05 0.059012461 35.450476
0.55834842 -0.05 0.059276836 35.061378
0.55207627 -0.05 0.059533812 34.672839
0.54580382 -0.05 0.059783316 34.284575
0.53953107 -0.05 0.060025187 33.896679
0.53325802 -0.05 0.060259283 33.508232
0.5269847 -0.05 0.060485537 33.119267
0.52071108 -0.05 0.060703775 32.728405
0.51443719 -0.05 0.060913855 32.335218
0.50816302 -0.05 0.061115609 31.941003
0.50188858 -0.05 0.0613089 31.550526
0.4956139 -0.05 0.061493605 31.165038
0.48933895 -0.05 0.061669526 30.786944
0.48306376 -0.05 0.061836459 30.416733
0.47678833 -0.05 0.06199428 30.05342
0.47051268 -0.05 0.062142854 29.700851
0.46423681 -0.05 0.062281926 29.361854
0.45796074 -0.05 0.062411285 29.037339
0.45168447 -0.05 0.062530768 28.726103
0.445408 -0.05 0.062640191 28.423645
0.43913137 -0.05 0.062739329 28.12911
0.43285459 -0.05 0.062827944 27.840834
0.42657767 -0.05 0.062905822 27.559076
0.42030061 -0.05 0.062972768 27.283248
0.41402345 -0.05 0.06302853 27.014021
0.40774619 -0.05 0.063072835 26.750055
0.40146888 -0.05 0.063105455 26.492073
0.3951915 -0.05 0.063126106 26.238726
0.38891409 -0.05 0.06313448 25.990889
0.38263669 -0.05 0.063130363 25.747917
0.3763593 -0.05 0.063113513 25.511049
0.37008197 -0.05 0.063083536 25.278206
0.36380471 -0.05 0.063040108 25.050505
0.35752756 -0.05 0.062982993 24.827577
0.35125056 -0.05 0.06291185 24.610092
0.34497374 -0.05 0.062826328 24.396731
0.33869713 -0.05 0.062726038 24.188818
0.33242078 -0.05 0.062610652 23.985671
0.32614473 -0.05 0.062479782 23.788074
0.31986905 -0.05 0.062333005 23.594089
0.31359377 -0.05 0.062169931 23.405058
0.30731893 -0.05 0.061990147 23.227879
0.30104461 -0.05 0.061793222 23.242956
