# p  FACE_DATA 448
# x y z  p
0.29780381 -0.05 -0.059493071 99391.425
0.29216676 -0.05 -0.059540292 99385.181
0.28661076 -0.05 -0.059572265 99379.06
0.28113468 -0.05 -0.059589213 99373.061
0.2757374 -0.05 -0.059591414 99367.15
0.27041783 -0.05 -0.059579178 99361.352
0.26517487 -0.05 -0.059552792 99355.664
0.26000749 -0.05 -0.059512512 99350.129
0.25491462 -0.05 -0.059458638 99344.611
0.24989522 -0.05 -0.059391428 99339.266
0.24494829 -0.05 -0.059311079 99334.042
0.24007283 -0.05 -0.059217879 99328.92
0.23526783 -0.05 -0.059112081 99323.883
0.23053231 -0.05 -0.05899396 99318.906
0.22586534 -0.05 -0.058863772 99314.072
0.22126594 -0.05 -0.058721698 99309.382
0.21673319 -0.05 -0.058568013 99304.713
0.21226618 -0.05 -0.05840295 99300.204
0.20786399 -0.05 -0.058226652 99295.845
0.20352572 -0.05 -0.058039395 99291.552
0.19925051 -0.05 -0.057841403 99287.412
0.19503749 -0.05 -0.057632916 99283.284
0.19088579 -0.05 -0.057414149 99279.315
0.18679456 -0.05 -0.057185194 99275.509
0.182763 -0.05 -0.056946315 99271.712
0.17879028 -0.05 -0.056697713 99268.105
0.17487558 -0.05 -0.056439556 99264.566
0.17101812 -0.05 -0.056172062 99261.156
0.16721711 -0.05 -0.055895402 99257.808
0.16347178 -0.05 -0.055609722 99254.641
0.15978138 -0.05 -0.05531516 99251.597
0.15614516 -0.05 -0.055011952 99248.63
0.15256238 -0.05 -0.054700218 99245.853
0.14903231 -0.05 -0.054380109 99243.081
0.14555425 -0.05 -0.054051783 99240.445
0.14212748 -0.05 -0.053715341 99237.933
0.13875133 -0.05 -0.053370951 99235.616
0.13542511 -0.05 -0.053018733 99233.424
0.13214814 -0.05 -0.052658866 99231.244
0.12891976 -0.05 -0.052291467 99229.254
0.12573934 -0.05 -0.051916569 99227.483
0.12260622 -0.05 -0.051534362 99225.709
0.11951977 -0.05 -0.051144975 99224.063
0.11647939 -0.05 -0.050748428 99222.567
0.11348447 -0.05 -0.050344802 99221.256
0.11053441 -0.05 -0.049934236 99220.004
0.10762864 -0.05 -0.049516768 99219.062
0.10476655 -0.05 -0.049092495 99218.171
0.10194759 -0.05 -0.048661579 99217.443
0.099171206 -0.05 -0.048223968 99216.999
0.096436856 -0.05 -0.04777972 99216.575
0.093743995 -0.05 -0.047328983 99216.221
0.091092117 -0.05 -0.046871678 99216.192
0.088480701 -0.05 -0.046407875 99216.229
0.085909238 -0.05 -0.04593764 99216.631
0.083377235 -0.05 -0.045461008 99217.095
0.080884203 -0.05 -0.044978023 99217.851
0.078429695 -0.05 -0.044488582 99218.846
0.076013253 -0.05 -0.043992681 99220.043
0.073634409 -0.05 -0.043490396 99221.325
0.07129272 -0.05 -0.042981748 99222.874
0.068987781 -0.05 -0.042466628 99224.831
0.066719178 -0.05 -0.041944997 99227.105
0.064486502 -0.05 -0.041416852 99229.607
0.062289374 -0.05 -0.040882104 99232.324
0.060127425 -0.05 -0.040340672 99235.27
0.058000293 -0.05 -0.039792494 99238.668
0.055907634 -0.05 -0.03923747 99242.588
0.053849099 -0.05 -0.038675567 99246.924
0.051824395 -0.05 -0.038106598 99251.899
0.049833232 -0.05 -0.037530413 99256.983
0.047875307 -0.05 -0.036946947 99262.389
0.045950363 -0.05 -0.036356018 99268.314
0.044058165 -0.05 -0.035757441 99275.101
0.042198518 -0.05 -0.035150941 99282.864
0.040371222 -0.05 -0.034536324 99291.153
0.038576079 -0.05 -0.033913442 99299.841
0.036812955 -0.05 -0.03328201 99309.361
0.035081745 -0.05 -0.032641718 99320.059
0.033382373 -0.05 -0.031992255 99332.143
0.031714787 -0.05 -0.031333306 99345.358
0.030078978 -0.05 -0.030664516 99359.292
0.028474999 -0.05 -0.029985452 99373.878
0.026902919 -0.05 -0.029295735 99390.298
0.025362885 -0.05 -0.028594878 99409.235
0.023855103 -0.05 -0.027882362 99430.266
0.022379832 -0.05 -0.027157676 99452.846
0.020937453 -0.05 -0.026420193 99477.065
0.019528368 -0.05 -0.025669336 99504.339
0.01815315 -0.05 -0.024904379 99535.212
0.016812453 -0.05 -0.024124559 99568.351
0.015507028 -0.05 -0.023329129 99604.193
0.014237813 -0.05 -0.022517235 99642.836
0.013005929 -0.05 -0.021688013 99685.605
0.01181269 -0.05 -0.020840558 99735.909
0.010659638 -0.05 -0.019973864 99793.853
0.0095485162 -0.05 -0.019086863 99860.211
0.0084813793 -0.05 -0.018178684 99937.353
0.00746071 -0.05 -0.017248464 100023.45
0.0064892303 -0.05 -0.016295094 100115.92
0.0055699913 -0.05 -0.015317817 100215.76
0.004706724 -0.05 -0.014316432 100325.03
0.0039032946 -0.05 -0.013290524 100442.83
0.0031637923 -0.05 -0.012240231 100571.47
0.0024929688 -0.05 -0.011166823 100707.67
0.0018954132 -0.05 -0.010071727 100849
0.0013754914 -0.05 -0.0089573983 100991.08
0.00093717105 -0.05 -0.0078278319 101128.92
0.00058357729 -0.05 -0.0066873966 101257.71
0.00031651746 -0.05 -0.0055413789 101370.21
0.00013613754 -0.05 -0.0043958358 101460.75
4.1003657e-05 -0.05 -0.0032568475 101528.44
0.99685529 -0.05 0.0075862203 100210.51
0.99065213 -0.05 0.0066235654 100139.65
0.98444789 -0.05 0.0056678865 100116.62
0.97824258 -0.05 0.0047191572 100095.35
0.97203623 -0.05 0.0037772713 100079.87
0.96582888 -0.05 0.002842071 100065.3
0.95962051 -0.05 0.0019135732 100052.67
0.95341116 -0.05 0.00099171452 100040.82
0.94720085 -0.05 7.6340645e-05 100030.08
0.9409896 -0.05 -0.00083263278 100019.72
0.93477741 -0.05 -0.0017352106 100010.18
0.9285643 -0.05 -0.0026314527 100000.92
0.9223503 -0.05 -0.0035214356 99992.303
0.91613541 -0.05 -0.0044051942 99983.946
0.90991966 -0.05 -0.005282879 99975.834
0.90370305 -0.05 -0.0061544878 99968.085
0.89748561 -0.05 -0.0070200518 99960.687
0.89126734 -0.05 -0.0078797067 99953.332
0.88504825 -0.05 -0.0087334661 99946.259
0.87882836 -0.05 -0.0095812733 99939.489
0.87260768 -0.05 -0.010423266 99932.744
0.86638621 -0.05 -0.011259511 99926.2
0.86016398 -0.05 -0.012089981 99919.845
0.85394098 -0.05 -0.012914762 99913.598
0.84771724 -0.05 -0.013733916 99907.442
0.84149277 -0.05 -0.01454743 99901.405
0.83526755 -0.05 -0.015355266 99895.615
0.82904163 -0.05 -0.016157601 99889.595
0.822815 -0.05 -0.016954394 99883.935
0.81658765 -0.05 -0.0177456 99878.166
0.81035959 -0.05 -0.018531296 99872.565
0.80413086 -0.05 -0.019311493 99866.905
0.79790144 -0.05 -0.020086223 99861.425
0.79167133 -0.05 -0.020855439 99855.997
0.78544057 -0.05 -0.021619229 99850.495
0.77920913 -0.05 -0.022377558 99845.154
0.77297702 -0.05 -0.023130394 99839.849
0.76674427 -0.05 -0.023877798 99834.54
0.76051085 -0.05 -0.024619755 99829.252
0.75427679 -0.05 -0.025356255 99823.961
0.74804209 -0.05 -0.026087271 99818.755
0.74180674 -0.05 -0.026812786 99813.512
0.73557076 -0.05 -0.027532787 99808.289
0.72933414 -0.05 -0.028247238 99803.131
0.72309689 -0.05 -0.028956171 99797.919
0.71685902 -0.05 -0.029659617 99792.617
0.71062052 -0.05 -0.030357401 99787.54
0.70438138 -0.05 -0.031049575 99782.196
0.69814162 -0.05 -0.031736103 99777.108
0.69190124 -0.05 -0.032416892 99771.912
0.68566023 -0.05 -0.033091999 99766.769
0.67941861 -0.05 -0.033761326 99761.609
0.67317636 -0.05 -0.034424883 99756.334
0.6669335 -0.05 -0.035082553 99751.163
0.66069001 -0.05 -0.035734236 99745.962
0.6544459 -0.05 -0.036380018 99740.616
0.64820117 -0.05 -0.03701981 99735.321
0.64195583 -0.05 -0.037653449 99730.049
0.63570985 -0.05 -0.0382809 99724.764
0.62946326 -0.05 -0.038902166 99719.439
0.62321605 -0.05 -0.03951711 99714.215
0.6169682 -0.05 -0.040125646 99708.892
0.61071973 -0.05 -0.040727771 99703.533
0.60447063 -0.05 -0.041323342 99698.179
0.59822091 -0.05 -0.041912286 99692.738
0.59197057 -0.05 -0.042494519 99687.306
0.58571958 -0.05 -0.04306995 99681.765
0.57946797 -0.05 -0.043638464 99676.265
0.57321572 -0.05 -0.044199916 99670.828
0.56696283 -0.05 -0.044754272 99665.343
0.56070931 -0.05 -0.045301412 99659.853
0.55445514 -0.05 -0.045841173 99654.324
0.54820034 -0.05 -0.046373484 99648.684
0.54194491 -0.05 -0.046898182 99643.031
0.53568881 -0.05 -0.047415129 99637.288
0.52943209 -0.05 -0.047924252 99631.492
0.52317471 -0.05 -0.04842538 99625.681
0.51691668 -0.05 -0.048918373 99619.831
0.51065801 -0.05 -0.04940306 99614.073
0.5043987 -0.05 -0.049879304 99608.248
0.49813874 -0.05 -0.050346983 99602.377
0.49187812 -0.05 -0.050805898 99596.426
0.48561685 -0.05 -0.051255845 99590.468
0.47935495 -0.05 -0.051696702 99584.351
0.47309239 -0.05 -0.052128329 99578.2
0.46682919 -0.05 -0.052550475 99572.027
0.46056535 -0.05 -0.052962925 99565.835
0.45430086 -0.05 -0.05336552 99559.562
0.44803574 -0.05 -0.053758074 99553.207
0.44176997 -0.05 -0.05414036 99546.742
0.43550359 -0.05 -0.054512141 99540.338
0.42923657 -0.05 -0.054873203 99533.91
0.42296893 -0.05 -0.05522335 99527.384
0.41670068 -0.05 -0.055562329 99520.81
0.41043182 -0.05 -0.055889865 99514.188
0.40416236 -0.05 -0.056205732 99507.445
0.39789232 -0.05 -0.056509646 99500.739
0.39162168 -0.05 -0.056801295 99494.004
0.38535049 -0.05 -0.057080467 99487.216
0.37907874 -0.05 -0.057346918 99480.351
0.37280644 -0.05 -0.057600252 99473.592
0.36653362 -0.05 -0.057840147 99466.754
0.36026029 -0.05 -0.058066362 99459.899
0.35398647 -0.05 -0.058278559 99453.006
0.34771218 -0.05 -0.058476382 99446.158
0.34143745 -0.05 -0.058659443 99439.297
0.33516229 -0.05 -0.058827412 99432.374
0.32888673 -0.05 -0.058979898 99425.498
0.32261081 -0.05 -0.059116477 99418.712
0.31633456 -0.05 -0.059236758 99411.856
0.310058 -0.05 -0.059340326 99404.666
0.30378119 -0.05 -0.059426747 99397.645
0.29651263 -0.05 0.060507886 99567.007
0.29087588 -0.05 0.060433805 99561.897
0.28532048 -0.05 0.060346223 99557.216
0.2798453 -0.05 0.060245338 99552.646
0.27444923 -0.05 0.060131406 99548.168
0.26913115 -0.05 0.060004712 99543.936
0.26388997 -0.05 0.05986552 99539.79
0.25872465 -0.05 0.059714063 99535.898
0.25363412 -0.05 0.059550619 99531.976
0.24861733 -0.05 0.059375424 99528.227
0.24367327 -0.05 0.05918865 99524.571
0.23880093 -0.05 0.058990566 99521.191
0.23399932 -0.05 0.058781405 99518.005
0.22926746 -0.05 0.058561419 99514.922
0.22460436 -0.05 0.058330842 99511.816
0.22000908 -0.05 0.058089836 99508.9
0.21548069 -0.05 0.057838655 99506.033
0.21101827 -0.05 0.057577515 99503.406
0.20662088 -0.05 0.057306537 99500.972
0.20228766 -0.05 0.057025978 99498.66
0.1980177 -0.05 0.056736042 99496.489
0.19381014 -0.05 0.056436952 99494.365
0.1896641 -0.05 0.056128904 99492.503
0.18557875 -0.05 0.055811972 99490.909
0.18155326 -0.05 0.055486402 99489.215
0.17758681 -0.05 0.055152376 99487.642
0.17367858 -0.05 0.054810048 99486.066
0.16982776 -0.05 0.054459615 99484.777
0.16603358 -0.05 0.054101233 99483.594
0.16229527 -0.05 0.053735031 99482.643
0.15861206 -0.05 0.053361132 99481.795
0.15498321 -0.05 0.052979754 99481.076
0.15140796 -0.05 0.052591002 99480.696
0.1478856 -0.05 0.052195011 99480.496
0.1444154 -0.05 0.051791925 99480.563
0.14099667 -0.05 0.051381827 99480.824
0.13762871 -0.05 0.050964871 99481.194
0.13431084 -0.05 0.050541165 99481.83
0.13104237 -0.05 0.050110872 99482.473
0.12782264 -0.05 0.049674093 99483.407
0.12465102 -0.05 0.04923085 99484.568
0.12152686 -0.05 0.048781317 99485.772
0.1184495 -0.05 0.048325609 99487.207
0.11541835 -0.05 0.047863734 99488.915
0.11243281 -0.05 0.047395761 99490.81
0.10949227 -0.05 0.046921814 99492.858
0.10659615 -0.05 0.046441918 99495.338
0.10374386 -0.05 0.04595616 99497.846
0.10093482 -0.05 0.045464689 99500.471
0.098168494 -0.05 0.04496744 99503.587
0.095444338 -0.05 0.04446446 99506.761
0.092761799 -0.05 0.043955886 99510.098
0.090120374 -0.05 0.043441627 99514.006
0.087519542 -0.05 0.042921741 99517.988
0.084958794 -0.05 0.042396286 99522.424
0.082437632 -0.05 0.041865284 99526.81
0.07995557 -0.05 0.041328768 99531.479
0.077512162 -0.05 0.040786627 99536.667
0.075106948 -0.05 0.040238847 99542.352
0.072739463 -0.05 0.039685493 99548.158
0.070409261 -0.05 0.039126577 99554.267
0.068115939 -0.05 0.038561981 99560.915
0.065859085 -0.05 0.037991657 99567.87
0.06363829 -0.05 0.037415595 99575.211
0.061453177 -0.05 0.036833695 99583.052
0.05930338 -0.05 0.03624587 99591.388
0.057188534 -0.05 0.03565205 99600.203
0.055108302 -0.05 0.035052127 99609.548
0.053062334 -0.05 0.034446061 99619.239
0.051050342 -0.05 0.033833658 99629.854
0.049072037 -0.05 0.033214762 99640.972
0.047127119 -0.05 0.032589303 99652.724
0.045215336 -0.05 0.031957093 99665.087
0.043336455 -0.05 0.03131794 99678.241
0.041490289 -0.05 0.030671566 99692.42
0.039676641 -0.05 0.030017775 99707.5
0.037895316 -0.05 0.029356411 99723.398
0.036146186 -0.05 0.028687187 99740.415
0.034429154 -0.05 0.028009794 99758.572
0.032744151 -0.05 0.027323916 99777.768
0.031091129 -0.05 0.026629238 99798.378
0.029470089 -0.05 0.025925405 99820.486
0.027881093 -0.05 0.025211987 99844.198
0.026324218 -0.05 0.024488602 99869.521
0.02479962 -0.05 0.023754771 99896.821
0.023307517 -0.05 0.023009977 99926.119
0.021848182 -0.05 0.022253717 99957.632
0.020422005 -0.05 0.021485368 99991.726
0.019029402 -0.05 0.020704365 100028.27
0.017670962 -0.05 0.019909995 100068.13
0.016347355 -0.05 0.019101508 100111.15
0.015059347 -0.05 0.018278174 100157.84
0.013807895 -0.05 0.017439159 100208.15
0.012594138 -0.05 0.016583622 100262.95
0.01141941 -0.05 0.015710689 100322.95
0.010285275 -0.05 0.014819385 100388.48
0.0091934949 -0.05 0.013908682 100458.7
0.0081461461 -0.05 0.012977751 100534.85
0.0071457284 -0.05 0.012025786 100616.82
0.0061949872 -0.05 0.011051734 100704.91
0.0052969891 -0.05 0.010054903 100798.93
0.0044554682 -0.05 0.0090351747 100898.24
0.0036742992 -0.05 0.0079922172 101001.57
0.0029575671 -0.05 0.0069262551 101107
0.0023099953 -0.05 0.0058386619 101211.75
0.001736141 -0.05 0.0047309626 101312.52
0.0012403164 -0.05 0.0036057044 101403.3
0.00082640228 -0.05 0.0024669683 101479.61
0.00049742901 -0.05 0.0013191888 101539.48
0.00025508972 -0.05 0.00016769017 101575.92
9.940005e-05 -0.05 -0.00098146906 101586
2.8795654e-05 -0.05 -0.0021222407 101570.4
0.9968456 -0.05 0.0084855207 99995.648
0.99062317 -0.05 0.0093144802 100024.89
0.98439981 -0.05 0.010136442 100005.61
0.97817552 -0.05 0.010951433 100013.33
0.97195034 -0.05 0.011759559 100007.68
0.9657243 -0.05 0.01256098 100007.86
0.95949739 -0.05 0.013355679 100005.15
0.95326964 -0.05 0.014143718 100003.62
0.94704108 -0.05 0.014925254 100001.4
0.9408117 -0.05 0.01570037 99999.402
0.93458154 -0.05 0.016469072 99997.149
0.92835059 -0.05 0.01723142 99994.961
0.92211887 -0.05 0.017987491 99992.604
0.9158864 -0.05 0.01873732 99990.288
0.90965321 -0.05 0.019481059 99987.832
0.90341929 -0.05 0.020218704 99985.428
0.89718465 -0.05 0.020950287 99982.873
0.89094933 -0.05 0.021675945 99980.349
0.88471331 -0.05 0.022395692 99977.702
0.87847661 -0.05 0.02310947 99975.089
0.87223925 -0.05 0.023817418 99972.359
0.86600123 -0.05 0.024519604 99969.666
0.85976257 -0.05 0.025215998 99966.866
0.85352328 -0.05 0.025906689 99964.098
0.84728335 -0.05 0.026591738 99961.227
0.84104282 -0.05 0.027271132 99958.365
0.83480166 -0.05 0.027944834 99955.419
0.82855991 -0.05 0.028613021 99952.48
0.82231758 -0.05 0.029275652 99949.475
0.81607464 -0.05 0.029932682 99946.471
0.80983114 -0.05 0.030584187 99943.398
0.80358704 -0.05 0.031230181 99940.349
0.7973424 -0.05 0.031870694 99937.229
0.79109719 -0.05 0.032505681 99934.118
0.78485143 -0.05 0.033135227 99930.943
0.77860511 -0.05 0.033759299 99927.792
0.77235825 -0.05 0.034377865 99924.566
0.76611086 -0.05 0.034990986 99921.349
0.75986292 -0.05 0.035598648 99918.06
0.75361446 -0.05 0.03620084 99914.791
0.74736547 -0.05 0.036797536 99911.45
0.74111596 -0.05 0.037388718 99908.105
0.73486593 -0.05 0.037974374 99904.7
0.72861538 -0.05 0.038554466 99901.295
0.72236432 -0.05 0.039129029 99897.829
0.71611276 -0.05 0.039698093 99894.341
0.70986068 -0.05 0.040261483 99890.821
0.70360809 -0.05 0.040819249 99887.279
0.697355 -0.05 0.041371358 99883.711
0.69110142 -0.05 0.041917716 99880.091
0.68484733 -0.05 0.04245838 99876.43
0.67859275 -0.05 0.042993252 99872.75
0.67233768 -0.05 0.043522341 99869.013
0.66608211 -0.05 0.044045533 99865.267
0.65982604 -0.05 0.044562725 99861.467
0.65356948 -0.05 0.045074003 99857.623
0.64731243 -0.05 0.045579281 99853.731
0.6410549 -0.05 0.046078392 99849.798
0.63479687 -0.05 0.046571305 99845.828
0.62853835 -0.05 0.047058019 99841.807
0.62227935 -0.05 0.047538401 99837.745
0.61601986 -0.05 0.048012362 99833.609
0.60975989 -0.05 0.0484799 99829.443
0.60349943 -0.05 0.048940872 99825.248
0.59723848 -0.05 0.049395205 99821.004
0.59097704 -0.05 0.049842815 99816.708
0.58471513 -0.05 0.050283612 99812.338
0.57845273 -0.05 0.050717479 99807.919
0.57218984 -0.05 0.051144272 99803.464
0.56592648 -0.05 0.051563958 99798.938
0.55966264 -0.05 0.051976414 99794.379
0.5533983 -0.05 0.052381481 99789.726
0.54713349 -0.05 0.052779085 99785.011
0.54086821 -0.05 0.053169064 99780.265
0.53460245 -0.05 0.053551279 99775.466
0.52833621 -0.05 0.05392566 99770.583
0.5220695 -0.05 0.054292033 99765.643
0.51580232 -0.05 0.054650258 99760.618
0.50953466 -0.05 0.055000166 99755.585
0.50326655 -0.05 0.055341619 99750.436
0.49699797 -0.05 0.055674494 99745.231
0.49072894 -0.05 0.055998595 99739.898
0.48445944 -0.05 0.056313715 99734.627
0.47818949 -0.05 0.056619732 99729.366
0.4719191 -0.05 0.056916509 99724.122
0.46564827 -0.05 0.057203793 99718.777
0.459377 -0.05 0.057481371 99713.376
0.45310531 -0.05 0.057749079 99707.89
0.44683318 -0.05 0.058006737 99702.386
0.44056064 -0.05 0.058254116 99696.817
0.43428771 -0.05 0.058490976 99691.217
0.42801437 -0.05 0.058717108 99685.553
0.42174065 -0.05 0.058932313 99679.903
0.41546655 -0.05 0.059136341 99674.235
0.4091921 -0.05 0.059328915 99668.534
0.4029173 -0.05 0.059509811 99662.71
0.39664216 -0.05 0.059678742 99656.981
0.39036671 -0.05 0.0598354 99651.258
0.38409096 -0.05 0.05997957 99645.488
0.37781493 -0.05 0.060111011 99639.606
0.37153863 -0.05 0.060229327 99633.875
0.3652621 -0.05 0.060334195 99628.136
0.35898536 -0.05 0.060425375 99622.403
0.35270842 -0.05 0.060502529 99616.589
0.34643133 -0.05 0.060565303 99610.874
0.34015411 -0.05 0.060613309 99605.219
0.33387678 -0.05 0.060646218 99599.506
0.3275994 -0.05 0.060663638 99593.801
0.321322 -0.05 0.060665147 99588.215
0.31504461 -0.05 0.060650355 99582.785
0.30876728 -0.05 0.060618848 99577.235
0.30249006 -0.05 0.060570191 99571.187
