# wallShearStress  FACE_DATA 448
# x y z  wallShearStress_x wallShearStress_y wallShearStress_z
0.29780381 -0.05 -0.059493071 -7.1094523 5.6174584e-17 -0.071505734
0.29216676 -0.05 -0.059540292 -6.9733491 -6.3384667e-19 -0.051977728
0.28661076 -0.05 -0.059572265 -6.8329513 -2.9733023e-17 -0.031525022
0.28113468 -0.05 -0.059589213 -6.6994876 1.2137802e-18 -0.012907165
0.2757374 -0.05 -0.059591414 -6.572808 8.8662542e-19 0.0053959018
0.27041783 -0.05 -0.059579178 -6.4528442 4.3855129e-18 0.023601747
0.26517487 -0.05 -0.059552792 -6.3395987 -4.4064926e-18 0.040295282
0.26000749 -0.05 -0.059512512 -6.2328923 4.1895988e-17 0.056076157
0.25491462 -0.05 -0.059458638 -6.1326958 -4.2528727e-17 0.071711542
0.24989522 -0.05 -0.059391428 -6.0387784 -3.9596842e-17 0.087360259
0.24494829 -0.05 -0.059311079 -5.9498724 -1.4583515e-17 0.10298474
0.24007283 -0.05 -0.059217879 -5.8656325 -8.9725709e-17 0.11830885
0.23526783 -0.05 -0.059112081 -5.7848708 9.2707585e-17 0.13337825
0.23053231 -0.05 -0.05899396 -5.7072667 9.2877963e-17 0.14830884
0.22586534 -0.05 -0.058863772 -5.6334226 -1.3158719e-18 0.16315895
0.22126594 -0.05 -0.058721698 -5.5629379 -1.4869485e-16 0.17785665
0.21673319 -0.05 -0.058568013 -5.4961022 4.4094614e-17 0.19237338
0.21226618 -0.05 -0.05840295 -5.4330703 -6.0549811e-17 0.20693747
0.20786399 -0.05 -0.058226652 -5.3729394 -3.6911236e-17 0.2213609
0.20352572 -0.05 -0.058039395 -5.3160984 -8.5800009e-17 0.23569593
0.19925051 -0.05 -0.057841403 -5.2625928 -1.5770319e-16 0.25002538
0.19503749 -0.05 -0.057632916 -5.2123374 6.5279935e-17 0.26432776
0.19088579 -0.05 -0.057414149 -5.1655288 3.2595095e-17 0.27880924
0.18679456 -0.05 -0.057185194 -5.1213037 -2.2053289e-16 0.29329831
0.182763 -0.05 -0.056946315 -5.0800366 -2.1845714e-16 0.30779936
0.17879028 -0.05 -0.056697713 -5.041942 1.1442757e-18 0.32252006
0.17487558 -0.05 -0.056439556 -5.0061527 4.3049122e-16 0.33723712
0.17101812 -0.05 -0.056172062 -4.9732503 2.2596756e-16 0.35217535
0.16721711 -0.05 -0.055895402 -4.9428367 -2.0882383e-16 0.36728792
0.16347178 -0.05 -0.055609722 -4.9149467 2.5042575e-16 0.38267988
0.15978138 -0.05 -0.05531516 -4.8890423 1.8152048e-16 0.39816574
0.15614516 -0.05 -0.055011952 -4.8656685 -1.0054238e-17 0.4139187
0.15256238 -0.05 -0.054700218 -4.8446166 4.9299878e-18 0.42997686
0.14903231 -0.05 -0.054380109 -4.8258737 4.7236563e-16 0.44628543
0.14555425 -0.05 -0.054051783 -4.8099672 -1.1522491e-17 0.46310673
0.14212748 -0.05 -0.053715341 -4.7961676 -2.7228756e-16 0.48025639
0.13875133 -0.05 -0.053370951 -4.7842909 2.2647874e-16 0.49772625
0.13542511 -0.05 -0.053018733 -4.7743143 3.286697e-17 0.51550768
0.13214814 -0.05 -0.052658866 -4.7665679 7.2386829e-17 0.53372408
0.12891976 -0.05 -0.052291467 -4.7610155 -5.497478e-16 0.55258915
0.12573934 -0.05 -0.051916569 -4.756427 -5.1194903e-16 0.57169317
0.12260622 -0.05 -0.051534362 -4.7537631 -8.8827114e-17 0.59121973
0.11951977 -0.05 -0.051144975 -4.7538374 -5.3823981e-16 0.61159062
0.11647939 -0.05 -0.050748428 -4.7556728 -7.0517138e-16 0.63258082
0.11348447 -0.05 -0.050344802 -4.7591539 1.5234094e-16 0.6541325
0.11053441 -0.05 -0.049934236 -4.7646668 2.2996526e-16 0.67648629
0.10762864 -0.05 -0.049516768 -4.7720855 1.1919038e-16 0.69958664
0.10476655 -0.05 -0.049092495 -4.7807337 -5.9634134e-16 0.72314397
0.10194759 -0.05 -0.048661579 -4.7916469 1.4265848e-16 0.74774166
0.099171206 -0.05 -0.048223968 -4.8034333 -4.0021571e-16 0.77301869
0.096436856 -0.05 -0.04777972 -4.8161018 -1.3918299e-16 0.79888823
0.093743995 -0.05 -0.047328983 -4.8314241 1.5734895e-16 0.82616508
0.091092117 -0.05 -0.046871678 -4.8484753 -2.1349384e-17 0.85446197
0.088480701 -0.05 -0.046407875 -4.8664346 -1.4237005e-16 0.88350248
0.085909238 -0.05 -0.04593764 -4.8861225 -1.4832098e-16 0.91369564
0.083377235 -0.05 -0.045461008 -4.9065166 1.1127341e-16 0.9447773
0.080884203 -0.05 -0.044978023 -4.9293022 -2.9393422e-16 0.97751119
0.078429695 -0.05 -0.044488582 -4.9532091 -6.522687e-16 1.0114145
0.076013253 -0.05 -0.043992681 -4.9788007 7.675825e-16 1.0465529
0.073634409 -0.05 -0.043490396 -5.0062719 1.3531891e-17 1.0831657
0.07129272 -0.05 -0.042981748 -5.0351484 5.6636026e-16 1.1214874
0.068987781 -0.05 -0.042466628 -5.0635561 3.2973001e-16 1.1609262
0.066719178 -0.05 -0.041944997 -5.0912991 4.822024e-16 1.2013444
0.064486502 -0.05 -0.041416852 -5.1199704 -1.4685774e-16 1.2435535
0.062289374 -0.05 -0.040882104 -5.1504906 -3.5414493e-16 1.288033
0.060127425 -0.05 -0.040340672 -5.1834738 1.9896612e-16 1.3350616
0.058000293 -0.05 -0.039792494 -5.2185249 -1.3350697e-16 1.3844287
0.055907634 -0.05 -0.03923747 -5.2543046 6.5468465e-16 1.4356446
0.053849099 -0.05 -0.038675567 -5.2901849 5.7674723e-16 1.4888499
0.051824395 -0.05 -0.038106598 -5.3259389 -1.5671998e-16 1.5440141
0.049833232 -0.05 -0.037530413 -5.3606361 -5.406183e-16 1.6011897
0.047875307 -0.05 -0.036946947 -5.3975194 8.4659508e-16 1.6622934
0.045950363 -0.05 -0.036356018 -5.4349263 -2.5353222e-16 1.7265802
0.044058165 -0.05 -0.035757441 -5.471006 2.4399812e-17 1.79363
0.042198518 -0.05 -0.035150941 -5.5048768 7.2947874e-17 1.8626019
0.040371222 -0.05 -0.034536324 -5.5377944 -2.4238047e-16 1.9346195
0.038576079 -0.05 -0.033913442 -5.5738866 -1.8233887e-16 2.012748
0.036812955 -0.05 -0.03328201 -5.6144563 5.9205759e-17 2.097339
0.035081745 -0.05 -0.032641718 -5.6552556 3.0915508e-16 2.1862642
0.033382373 -0.05 -0.031992255 -5.6930275 1.3474422e-17 2.2781007
0.031714787 -0.05 -0.031333306 -5.7250691 -6.0096353e-16 2.3723419
0.030078978 -0.05 -0.030664516 -5.7517317 -4.2779937e-16 2.4717161
0.028474999 -0.05 -0.029985452 -5.7753419 -1.931947e-16 2.5792336
0.026902919 -0.05 -0.029295735 -5.7956242 -1.6002163e-16 2.6920407
0.025362885 -0.05 -0.028594878 -5.8020185 1.5465756e-16 2.804385
0.023855103 -0.05 -0.027882362 -5.7982806 8.2306178e-16 2.917734
0.022379832 -0.05 -0.027157676 -5.7949013 -6.2140617e-16 3.0382644
0.020937453 -0.05 -0.026420193 -5.7954795 6.2806969e-16 3.169211
0.019528368 -0.05 -0.025669336 -5.7799992 -4.0944661e-17 3.3005491
0.01815315 -0.05 -0.024904379 -5.715985 -4.8669938e-16 3.4165277
0.016812453 -0.05 -0.024124559 -5.579377 7.2158677e-16 3.5115746
0.015507028 -0.05 -0.023329129 -5.387194 2.3461919e-16 3.5986215
0.014237813 -0.05 -0.022517235 -5.1650798 -3.8509183e-16 3.7052204
0.013005929 -0.05 -0.021688013 -4.9588348 3.7837192e-16 3.8752697
0.01181269 -0.05 -0.020840558 -4.8024255 -2.379744e-16 4.1457009
0.010659638 -0.05 -0.019973864 -4.6705653 -1.9183836e-16 4.5260213
0.0095485162 -0.05 -0.019086863 -4.5777345 3.9713355e-16 5.0083907
0.0084813793 -0.05 -0.018178684 -4.5555793 6.3702075e-16 5.5556651
0.00746071 -0.05 -0.017248464 -4.6386827 1.7465351e-16 6.1696587
0.0064892303 -0.05 -0.016295094 -4.7138901 -2.6908304e-17 6.7699872
0.0055699913 -0.05 -0.015317817 -4.693196 4.7936517e-17 7.2606624
0.004706724 -0.05 -0.014316432 -4.5160881 -7.8092424e-17 7.59697
0.0039032946 -0.05 -0.013290524 -4.1914082 -1.4148713e-16 7.7555248
0.0031637923 -0.05 -0.012240231 -3.7278237 -1.8682466e-16 7.7132388
0.0024929688 -0.05 -0.011166823 -3.1723846 1.6048e-16 7.4392789
0.0018954132 -0.05 -0.010071727 -2.565037 3.8126747e-17 6.9658671
0.0013754914 -0.05 -0.0089573983 -1.9549408 2.1346141e-17 6.290549
0.00093717105 -0.05 -0.0078278319 -1.3762743 -8.4024133e-17 5.4345216
0.00058357729 -0.05 -0.0066873966 -0.87713639 1.5438359e-16 4.4556726
0.00031651746 -0.05 -0.0055413789 -0.53237089 1.3180602e-17 3.4025249
0.00013613754 -0.05 -0.0043958358 -0.30781966 -6.4849845e-17 2.3223018
4.1003657e-05 -0.05 -0.0032568475 -0.18485768 -2.7866203e-17 1.3298616
0.99685529 -0.05 0.0075862203 -62.147067 -3.6831808e-16 -9.2766296
0.99065213 -0.05 0.0066235654 -57.28728 -5.0507521e-17 -8.8247461
0.98444789 -0.05 0.0056678865 -57.181146 -8.944538e-17 -8.7566995
0.97824258 -0.05 0.0047191572 -56.781059 -5.9686527e-16 -8.6321596
0.97203623 -0.05 0.0037772713 -56.410851 8.4915907e-16 -8.5126992
0.96582888 -0.05 0.002842071 -55.995087 -8.7116392e-16 -8.3890643
0.95962051 -0.05 0.0019135732 -55.570968 -4.6261501e-16 -8.2645839
0.95341116 -0.05 0.00099171452 -55.130631 -3.2290729e-16 -8.1405458
0.94720085 -0.05 7.6340645e-05 -54.679406 4.6844028e-16 -8.0161556
0.9409896 -0.05 -0.00083263278 -54.213648 1.1649915e-16 -7.8916517
0.93477741 -0.05 -0.0017352106 -53.739632 6.3861233e-16 -7.7666114
0.9285643 -0.05 -0.0026314527 -53.256265 -3.976754e-16 -7.6425745
0.9223503 -0.05 -0.0035214356 -52.766114 -3.0053765e-16 -7.5184092
0.91613541 -0.05 -0.0044051942 -52.268422 5.9123909e-16 -7.3954221
0.90991966 -0.05 -0.005282879 -51.768143 -1.0924019e-15 -7.2734357
0.90370305 -0.05 -0.0061544878 -51.264408 -1.2313253e-17 -7.1519451
0.89748561 -0.05 -0.0070200518 -50.758906 4.5221417e-16 -7.0320768
0.89126734 -0.05 -0.0078797067 -50.250635 -1.4359279e-15 -6.913381
0.88504825 -0.05 -0.0087334661 -49.742243 -3.8846829e-16 -6.7953802
0.87882836 -0.05 -0.0095812733 -49.231217 -1.2839445e-15 -6.6784884
0.87260768 -0.05 -0.010423266 -48.719819 7.9010545e-16 -6.5635977
0.86638621 -0.05 -0.011259511 -48.206131 -8.2910338e-17 -6.449109
0.86016398 -0.05 -0.012089981 -47.690627 7.3733895e-16 -6.3359314
0.85394098 -0.05 -0.012914762 -47.171603 6.5279179e-16 -6.2237033
0.84771724 -0.05 -0.013733916 -46.649516 7.7349178e-16 -6.1122024
0.84149277 -0.05 -0.01454743 -46.122491 4.1540316e-16 -6.0009168
0.83526755 -0.05 -0.015355266 -45.591993 5.8778618e-16 -5.8905562
0.82904163 -0.05 -0.016157601 -45.060126 6.2158074e-16 -5.781694
0.822815 -0.05 -0.016954394 -44.5289 -7.8767652e-16 -5.6727541
0.81658765 -0.05 -0.0177456 -43.999617 -4.5980109e-16 -5.5659831
0.81035959 -0.05 -0.018531296 -43.474579 1.1393495e-15 -5.4603612
0.80413086 -0.05 -0.019311493 -42.953319 -1.0851723e-15 -5.3566469
0.79790144 -0.05 -0.020086223 -42.435988 7.4779205e-16 -5.2540405
0.79167133 -0.05 -0.020855439 -41.920839 -4.5334979e-16 -5.1529601
0.78544057 -0.05 -0.021619229 -41.409562 -1.3958913e-15 -5.0535313
0.77920913 -0.05 -0.022377558 -40.898661 -4.0607429e-16 -4.9546828
0.77297702 -0.05 -0.023130394 -40.385624 -8.3427676e-16 -4.8570798
0.76674427 -0.05 -0.023877798 -39.868151 -8.4550686e-16 -4.7597806
0.76051085 -0.05 -0.024619755 -39.346736 -6.0299185e-16 -4.6627934
0.75427679 -0.05 -0.025356255 -38.822551 1.193074e-15 -4.5661555
0.74804209 -0.05 -0.026087271 -38.298585 -6.8692399e-16 -4.4702103
0.74180674 -0.05 -0.026812786 -37.778094 -4.7777978e-16 -4.3754862
0.73557076 -0.05 -0.027532787 -37.264729 6.9509048e-16 -4.2823184
0.72933414 -0.05 -0.028247238 -36.757838 -1.877301e-15 -4.1907719
0.72309689 -0.05 -0.028956171 -36.257398 -1.4773494e-15 -4.1010537
0.71685902 -0.05 -0.029659617 -35.762978 3.513349e-16 -4.0125285
0.71062052 -0.05 -0.030357401 -35.271438 2.2507607e-16 -3.9248163
0.70438138 -0.05 -0.031049575 -34.780401 -1.2326301e-15 -3.8387738
0.69814162 -0.05 -0.031736103 -34.285358 8.7176179e-16 -3.7522729
0.69190124 -0.05 -0.032416892 -33.782822 -4.7660552e-17 -3.6664172
0.68566023 -0.05 -0.033091999 -33.274065 -6.9909712e-16 -3.5801898
0.67941861 -0.05 -0.033761326 -32.762423 -1.6833276e-15 -3.4942302
0.67317636 -0.05 -0.034424883 -32.255324 9.7818105e-16 -3.4092828
0.6669335 -0.05 -0.035082553 -31.756229 9.1880009e-16 -3.3253974
0.66069001 -0.05 -0.035734236 -31.266953 -1.6276643e-16 -3.2436451
0.6544459 -0.05 -0.036380018 -30.786896 -1.9078685e-15 -3.1637124
0.64820117 -0.05 -0.03701981 -30.313484 6.7248419e-16 -3.0847825
0.64195583 -0.05 -0.037653449 -29.84178 -8.115664e-17 -3.0069553
0.63570985 -0.05 -0.0382809 -29.365743 -5.2178345e-16 -2.9297526
0.62946326 -0.05 -0.038902166 -28.878798 5.1854413e-16 -2.8522155
0.62321605 -0.05 -0.03951711 -28.378464 9.9938408e-16 -2.7736222
0.6169682 -0.05 -0.040125646 -27.871503 2.8007749e-16 -2.6950718
0.61071973 -0.05 -0.040727771 -27.368615 -5.1156473e-17 -2.6172049
0.60447063 -0.05 -0.041323342 -26.874637 3.3836892e-16 -2.540718
0.59822091 -0.05 -0.041912286 -26.388539 2.4825723e-16 -2.4658604
0.59197057 -0.05 -0.042494519 -25.910366 1.0658969e-16 -2.3923826
0.58571958 -0.05 -0.04306995 -25.437661 5.4391507e-17 -2.3205453
0.57946797 -0.05 -0.043638464 -24.964308 -5.0134006e-16 -2.249425
0.57321572 -0.05 -0.044199916 -24.480285 2.2447858e-16 -2.1785539
0.56696283 -0.05 -0.044754272 -23.97576 2.3873731e-17 -2.1067967
0.56070931 -0.05 -0.045301412 -23.448815 1.0256755e-15 -2.0333976
0.55445514 -0.05 -0.045841173 -22.912014 2.3029903e-16 -1.959493
0.54820034 -0.05 -0.046373484 -22.384607 -3.9572034e-16 -1.8869703
0.54194491 -0.05 -0.046898182 -21.868095 3.3382102e-16 -1.8159786
0.53568881 -0.05 -0.047415129 -21.363485 -4.8766882e-16 -1.7470414
0.52943209 -0.05 -0.047924252 -20.870156 -3.4790906e-16 -1.6799579
0.52317471 -0.05 -0.04842538 -20.385292 2.0553953e-17 -1.6147915
0.51691668 -0.05 -0.048918373 -19.901656 -4.3607967e-16 -1.551566
0.51065801 -0.05 -0.04940306 -19.405901 2.5973177e-16 -1.4885819
0.5043987 -0.05 -0.049879304 -18.883815 -1.9070383e-16 -1.4246303
0.49813874 -0.05 -0.050346983 -18.34139 -1.0208929e-15 -1.3593361
0.49187812 -0.05 -0.050805898 -17.808852 7.9466663e-16 -1.2951901
0.48561685 -0.05 -0.051255845 -17.286303 5.4628382e-16 -1.2325799
0.47935495 -0.05 -0.051696702 -16.776648 -6.0978024e-16 -1.1717042
0.47309239 -0.05 -0.052128329 -16.278373 -1.0853802e-16 -1.1119037
0.46682919 -0.05 -0.052550475 -15.78843 -2.2440696e-16 -1.0534355
0.46056535 -0.05 -0.052962925 -15.307044 -1.8903514e-16 -0.99679739
0.45430086 -0.05 -0.05336552 -14.833798 -1.6630707e-17 -0.94193349
0.44803574 -0.05 -0.053758074 -14.368524 2.5592858e-17 -0.88871158
0.44176997 -0.05 -0.05414036 -13.91022 5.7675479e-16 -0.83702763
0.43550359 -0.05 -0.054512141 -13.458849 3.7554349e-16 -0.78690127
0.42923657 -0.05 -0.054873203 -13.016307 3.5862399e-16 -0.73863536
0.42296893 -0.05 -0.05522335 -12.588058 -2.9684715e-16 -0.69216582
0.41670068 -0.05 -0.055562329 -12.176168 2.4515535e-16 -0.64755249
0.41043182 -0.05 -0.055889865 -11.781734 2.0093052e-16 -0.60487078
0.40416236 -0.05 -0.056205732 -11.404507 -3.5295579e-16 -0.56414677
0.39789232 -0.05 -0.056509646 -11.043659 2.6173445e-16 -0.52501606
0.39162168 -0.05 -0.056801295 -10.702075 3.1489434e-16 -0.48755837
0.38535049 -0.05 -0.057080467 -10.381355 6.6032012e-17 -0.45205828
0.37907874 -0.05 -0.057346918 -10.079002 2.056748e-16 -0.41821645
0.37280644 -0.05 -0.057600252 -9.7910641 -1.084087e-16 -0.3856293
0.36653362 -0.05 -0.057840147 -9.5151134 -1.8186984e-16 -0.35438482
0.36026029 -0.05 -0.058066362 -9.2511828 -1.6934233e-17 -0.3242305
0.35398647 -0.05 -0.058278559 -8.9978573 1.3446888e-16 -0.29508319
0.34771218 -0.05 -0.058476382 -8.7546158 1.9733787e-16 -0.26684468
0.34143745 -0.05 -0.058659443 -8.5205294 6.9487461e-17 -0.23949641
0.33516229 -0.05 -0.058827412 -8.2959184 -8.4322437e-17 -0.21304149
0.32888673 -0.05 -0.058979898 -8.0798922 2.2862615e-20 -0.18729126
0.32261081 -0.05 -0.059116477 -7.8715487 9.6103764e-17 -0.16232341
0.31633456 -0.05 -0.059236758 -7.6710327 4.5306e-17 -0.13808888
0.310058 -0.05 -0.059340326 -7.4798981 3.4426939e-17 -0.11462251
0.30378119 -0.05 -0.059426747 -7.281226 -1.1205859e-17 -0.091739566
0.29651263 -0.05 0.060507886 -6.7722038 5.037636e-17 -0.096503069
0.29087588 -0.05 0.060433805 -7.0157429 5.028908e-18 -0.11814282
0.28532048 -0.05 0.060346223 -7.2852062 3.8714435e-17 -0.14190508
0.2798453 -0.05 0.060245338 -7.5519173 1.9820366e-16 -0.16729885
0.27444923 -0.05 0.060131406 -7.8219986 1.2985928e-16 -0.19436944
0.26913115 -0.05 0.060004712 -8.0939844 8.1267349e-18 -0.22317029
0.26388997 -0.05 0.05986552 -8.3664351 1.4329083e-16 -0.25358531
0.25872465 -0.05 0.059714063 -8.6386612 9.2899325e-18 -0.28590575
0.25363412 -0.05 0.059550619 -8.9114344 -3.9236293e-18 -0.31991833
0.24861733 -0.05 0.059375424 -9.1855742 -6.0863381e-17 -0.35602737
0.24367327 -0.05 0.05918865 -9.4595928 -1.1234701e-16 -0.39381139
0.23880093 -0.05 0.058990566 -9.7329223 -2.8520132e-16 -0.43333469
0.23399932 -0.05 0.058781405 -10.003551 -1.466284e-17 -0.47437862
0.22926746 -0.05 0.058561419 -10.267764 1.7697476e-19 -0.51696253
0.22460436 -0.05 0.058330842 -10.526936 -1.3270369e-16 -0.56135624
0.22000908 -0.05 0.058089836 -10.778858 1.5299814e-16 -0.60737735
0.21548069 -0.05 0.057838655 -11.021989 1.9394829e-16 -0.65465831
0.21101827 -0.05 0.057577515 -11.258124 -7.6501827e-17 -0.70384822
0.20662088 -0.05 0.057306537 -11.490617 3.6289963e-16 -0.75468328
0.20228766 -0.05 0.057025978 -11.725098 5.0546567e-17 -0.80716723
0.1980177 -0.05 0.056736042 -11.962384 -1.4342394e-16 -0.86125712
0.19381014 -0.05 0.056436952 -12.197881 1.2170092e-16 -0.91646299
0.1896641 -0.05 0.056128904 -12.423001 3.9949334e-16 -0.97290152
0.18557875 -0.05 0.055811972 -12.627336 -2.5605826e-16 -1.0303748
0.18155326 -0.05 0.055486402 -12.808722 -3.188668e-16 -1.0895706
0.17758681 -0.05 0.055152376 -12.972193 -1.3237145e-16 -1.1521381
0.17367858 -0.05 0.054810048 -13.139475 2.4999267e-16 -1.2188226
0.16982776 -0.05 0.054459615 -13.327645 -6.5854562e-17 -1.2906597
0.16603358 -0.05 0.054101233 -13.541437 3.6144712e-17 -1.3670942
0.16229527 -0.05 0.053735031 -13.770967 1.4229991e-16 -1.4475971
0.15861206 -0.05 0.053361132 -14.016604 -9.1932231e-17 -1.5319641
0.15498321 -0.05 0.052979754 -14.284337 -8.7884339e-17 -1.6207107
0.15140796 -0.05 0.052591002 -14.582015 -2.0620731e-16 -1.7148207
0.1478856 -0.05 0.052195011 -14.910166 -2.5740035e-16 -1.8148189
0.1444154 -0.05 0.051791925 -15.259304 6.275396e-16 -1.9204493
0.14099667 -0.05 0.051381827 -15.617117 6.4011208e-16 -2.0304426
0.13762871 -0.05 0.050964871 -15.975888 3.5450714e-16 -2.1442834
0.13431084 -0.05 0.050541165 -16.330738 -3.0611909e-16 -2.2617529
0.13104237 -0.05 0.050110872 -16.678869 2.4820297e-16 -2.3824891
0.12782264 -0.05 0.049674093 -17.018719 4.6322338e-17 -2.5067229
0.12465102 -0.05 0.04923085 -17.347873 4.5299194e-16 -2.6335611
0.12152686 -0.05 0.048781317 -17.666748 -7.2469068e-16 -2.7629803
0.1184495 -0.05 0.048325609 -17.974593 9.6630419e-17 -2.8954411
0.11541835 -0.05 0.047863734 -18.269919 3.7011662e-16 -3.0315237
0.11243281 -0.05 0.047395761 -18.552489 -8.6944753e-17 -3.1701946
0.10949227 -0.05 0.046921814 -18.822609 -5.94619e-16 -3.3114103
0.10659615 -0.05 0.046441918 -19.078799 1.4930784e-16 -3.455016
0.10374386 -0.05 0.04595616 -19.322309 4.0599739e-16 -3.6005813
0.10093482 -0.05 0.045464689 -19.554888 -3.223548e-17 -3.7492452
0.098168494 -0.05 0.04496744 -19.774596 -2.0201809e-17 -3.900414
0.095444338 -0.05 0.04446446 -19.981904 -1.272517e-16 -4.0534551
0.092761799 -0.05 0.043955886 -20.177951 -1.3268481e-16 -4.2095151
0.090120374 -0.05 0.043441627 -20.360309 2.4150892e-17 -4.3677537
0.087519542 -0.05 0.042921741 -20.530063 1.6775547e-16 -4.5277192
0.084958794 -0.05 0.042396286 -20.687142 4.0190415e-16 -4.6899375
0.082437632 -0.05 0.041865284 -20.832848 -2.7568124e-16 -4.8541898
0.07995557 -0.05 0.041328768 -20.967562 -1.9250972e-16 -5.0212042
0.077512162 -0.05 0.040786627 -21.08956 -4.53651e-16 -5.189907
0.075106948 -0.05 0.040238847 -21.197531 1.1693306e-16 -5.3603709
0.072739463 -0.05 0.039685493 -21.290869 -1.6397145e-17 -5.5323833
0.070409261 -0.05 0.039126577 -21.369769 -5.0959393e-16 -5.706742
0.068115939 -0.05 0.038561981 -21.432305 9.436249e-16 -5.8826295
0.065859085 -0.05 0.037991657 -21.478715 -5.3508248e-16 -6.0597914
0.06363829 -0.05 0.037415595 -21.508906 3.1079034e-18 -6.2386253
0.061453177 -0.05 0.036833695 -21.521941 -1.9030469e-16 -6.4187732
0.05930338 -0.05 0.03624587 -21.517341 4.8579923e-16 -6.5998122
0.057188534 -0.05 0.03565205 -21.495049 -5.4521806e-16 -6.7818841
0.055108302 -0.05 0.035052127 -21.454894 -2.2288623e-16 -6.9651455
0.053062334 -0.05 0.034446061 -21.396528 1.0050649e-15 -7.1499731
0.051050342 -0.05 0.033833658 -21.318202 3.3910306e-16 -7.3354671
0.049072037 -0.05 0.033214762 -21.220102 2.2405262e-16 -7.5212666
0.047127119 -0.05 0.032589303 -21.102852 4.7487086e-17 -7.7075127
0.045215336 -0.05 0.031957093 -20.965419 -2.2213793e-16 -7.8945232
0.043336455 -0.05 0.03131794 -20.806981 -2.565864e-16 -8.0817203
0.041490289 -0.05 0.030671566 -20.625556 8.3254663e-16 -8.2680125
0.039676641 -0.05 0.030017775 -20.421622 2.0903376e-16 -8.4528661
0.037895316 -0.05 0.029356411 -20.19532 -7.5510543e-16 -8.6370146
0.036146186 -0.05 0.028687187 -19.945804 -7.0337475e-17 -8.820593
0.034429154 -0.05 0.028009794 -19.667656 -9.6259187e-18 -8.9996257
0.032744151 -0.05 0.027323916 -19.369504 1.60979e-16 -9.1752504
0.031091129 -0.05 0.026629238 -19.04449 1.6598143e-16 -9.3491072
0.029470089 -0.05 0.025925405 -18.6901 1.1301667e-16 -9.5163374
0.027881093 -0.05 0.025211987 -18.307654 -1.8030921e-16 -9.6777484
0.026324218 -0.05 0.024488602 -17.896883 -2.5898737e-16 -9.8319867
0.02479962 -0.05 0.023754771 -17.455496 2.6001392e-16 -9.9768633
0.023307517 -0.05 0.023009977 -16.981799 5.7253014e-16 -10.110763
0.021848182 -0.05 0.022253717 -16.475148 2.3341131e-16 -10.232183
0.020422005 -0.05 0.021485368 -15.934663 5.8003431e-17 -10.338067
0.019029402 -0.05 0.020704365 -15.360724 -3.1072558e-16 -10.42753
0.017670962 -0.05 0.019909995 -14.750758 4.3604049e-16 -10.495175
0.016347355 -0.05 0.019101508 -14.1049 -1.2437839e-16 -10.538221
0.015059347 -0.05 0.018278174 -13.422859 3.3026155e-16 -10.552424
0.013807895 -0.05 0.017439159 -12.705284 -2.7466394e-16 -10.535172
0.012594138 -0.05 0.016583622 -11.952073 1.1343047e-16 -10.4803
0.01141941 -0.05 0.015710689 -11.162104 -5.1510768e-16 -10.379755
0.010285275 -0.05 0.014819385 -10.335683 1.6295485e-16 -10.225662
0.0091934949 -0.05 0.013908682 -9.4792125 9.339994e-16 -10.017166
0.0081461461 -0.05 0.012977751 -8.5994461 -8.0692668e-16 -9.7452114
0.0071457284 -0.05 0.012025786 -7.6968577 -2.4160638e-16 -9.403494
0.0061949872 -0.05 0.011051734 -6.7781416 -4.7761339e-17 -8.9755902
0.0052969891 -0.05 0.010054903 -5.85587 -1.8617183e-16 -8.451103
0.0044554682 -0.05 0.0090351747 -4.9444975 -1.9452798e-16 -7.8204335
0.0036742992 -0.05 0.0079922172 -4.0610666 2.3978658e-16 -7.088138
0.0029575671 -0.05 0.0069262551 -3.2225915 -4.2104265e-17 -6.255649
0.0023099953 -0.05 0.0058386619 -2.4266354 1.7702147e-16 -5.3305643
0.001736141 -0.05 0.0047309626 -1.7221466 -1.8269029e-16 -4.3368113
0.0012403164 -0.05 0.0036057044 -1.1378955 -1.8571474e-16 -3.2953653
0.00082640228 -0.05 0.0024669683 -0.68610848 -2.4363922e-16 -2.2376355
0.00049742901 -0.05 0.0013191888 -0.39745709 1.3263405e-16 -1.2629795
0.00025508972 -0.05 0.00016769017 -0.22994835 3.8441739e-17 -0.56614727
9.940005e-05 -0.05 -0.00098146906 -0.15939972 6.3212296e-17 0.033312106
2.8795654e-05 -0.05 -0.0021222407 -0.13560853 -5.588743e-18 0.63810072
0.9968456 -0.05 0.0084855207 0.15648187 1.475754e-17 0.13556233
0.99062317 -0.05 0.0093144802 -0.0089832977 2.8706222e-16 0.00018417894
0.98439981 -0.05 0.010136442 0.010528303 6.3797539e-17 -0.00093690529
0.97817552 -0.05 0.010951433 -0.0019451152 3.3901481e-17 0.00020956449
0.97195034 -0.05 0.011759559 0.0052470947 -7.8224154e-16 -0.00042010706
0.9657243 -0.05 0.01256098 0.0024690201 8.1818157e-16 -0.00015954879
0.95949739 -0.05 0.013355679 0.0041156825 2.3707457e-16 -0.00036471886
0.95326964 -0.05 0.014143718 0.0036916058 2.6866287e-16 -0.00028665108
0.94704108 -0.05 0.014925254 0.0041896944 3.6501582e-16 -0.00034943617
0.9408117 -0.05 0.01570037 0.0042534192 4.4077898e-16 -0.00033280889
0.93458154 -0.05 0.016469072 0.0045004462 -4.0620743e-16 -0.00035774389
0.92835059 -0.05 0.01723142 0.004647009 -3.1573802e-16 -0.00036431713
0.92211887 -0.05 0.017987491 0.0048390636 9.0266816e-16 -0.00038450098
0.9158864 -0.05 0.01873732 0.0049901297 -5.5565558e-16 -0.00039890682
0.90965321 -0.05 0.019481059 0.0052051679 -5.4487994e-17 -0.00042007498
0.90341929 -0.05 0.020218704 0.0053323173 -3.1098818e-16 -0.00040354195
0.89718465 -0.05 0.020950287 0.0055481227 1.3768542e-16 -0.00041140354
0.89094933 -0.05 0.021675945 0.0056660862 7.6608018e-16 -0.00041713316
0.88471331 -0.05 0.022395692 0.0058590091 8.881899e-17 -0.00042427669
0.87847661 -0.05 0.02310947 0.0059859136 -8.2923141e-16 -0.00042847613
0.87223925 -0.05 0.023817418 0.0061583882 -1.0527592e-16 -0.00043981481
0.86600123 -0.05 0.024519604 0.006453288 1.6111539e-16 -0.00042728818
0.85976257 -0.05 0.025215998 0.0069031618 -9.0807907e-17 -0.00042210984
0.85352328 -0.05 0.025906689 0.0075823709 3.0267083e-16 -0.00034568767
0.84728335 -0.05 0.026591738 0.011694783 -3.0747726e-16 -0.00052702654
0.84104282 -0.05 0.027271132 0.011378137 -5.4617578e-16 -0.000645165
0.83480166 -0.05 0.027944834 0.012122702 -1.1312829e-16 -0.00092392114
0.82855991 -0.05 0.028613021 0.010699506 1.9592015e-16 -0.00076843105
0.82231758 -0.05 0.029275652 0.011714802 1.9043361e-16 -0.00087110181
0.81607464 -0.05 0.029932682 0.010219536 6.1953881e-16 -0.00071251939
0.80983114 -0.05 0.030584187 0.010735697 -6.3107654e-17 -0.00072636831
0.80358704 -0.05 0.031230181 0.010260861 -2.8176264e-16 -0.00070535367
0.7973424 -0.05 0.031870694 0.0095770382 3.6399057e-17 -0.00062820716
0.79109719 -0.05 0.032505681 0.0085405772 -4.5615184e-16 -0.00051753661
0.78485143 -0.05 0.033135227 0.0070906562 -5.2483894e-16 -0.00034914519
0.77860511 -0.05 0.033759299 0.0052266358 -6.1078952e-16 -0.00015537661
0.77235825 -0.05 0.034377865 0.0029680029 1.7873994e-16 6.9738666e-05
0.76611086 -0.05 0.034990986 0.00027253649 -5.0135179e-17 0.00032904831
0.75986292 -0.05 0.035598648 -0.0027487717 -4.0573015e-17 0.00055422105
0.75361446 -0.05 0.03620084 -0.0051171779 2.4546622e-17 0.00079127082
0.74736547 -0.05 0.036797536 -0.0077940344 -1.4214492e-17 0.0010435561
0.74111596 -0.05 0.037388718 -0.01086181 6.3785772e-17 0.0013277164
0.73486593 -0.05 0.037974374 -0.014340571 -1.1055464e-16 0.0016405451
0.72861538 -0.05 0.038554466 -0.018227606 -3.9295096e-17 0.0019835404
0.72236432 -0.05 0.039129029 -0.02254527 -2.3153125e-16 0.0023591413
0.71611276 -0.05 0.039698093 -0.027399743 -2.8062726e-16 0.0027706405
0.70986068 -0.05 0.040261483 -0.032783183 -8.9195652e-17 0.0032178407
0.70360809 -0.05 0.040819249 -0.038753188 -1.7974404e-16 0.0036938095
0.697355 -0.05 0.041371358 -0.045427393 -2.0063977e-16 0.0042263267
0.69110142 -0.05 0.041917716 -0.052874704 1.12532e-16 0.0048013213
0.68484733 -0.05 0.04245838 -0.061287119 1.6767207e-16 0.0054410929
0.67859275 -0.05 0.042993252 -0.070576015 2.4496847e-16 0.0061330442
0.67233768 -0.05 0.043522341 -0.080843438 2.8068031e-16 0.006887551
0.66608211 -0.05 0.044045533 -0.092077841 2.4500013e-16 0.0077004026
0.65982604 -0.05 0.044562725 -0.10423421 4.3375331e-16 0.0085634447
0.65356948 -0.05 0.045074003 -0.11747175 -4.3256844e-16 0.0094800832
0.64731243 -0.05 0.045579281 -0.13185321 -4.627983e-17 0.010460521
0.6410549 -0.05 0.046078392 -0.14736661 8.83727e-18 0.011496376
0.63479687 -0.05 0.046571305 -0.16402594 3.761056e-16 0.012586977
0.62853835 -0.05 0.047058019 -0.18191125 -1.0330161e-16 0.01373158
0.62227935 -0.05 0.047538401 -0.20105569 -7.0670996e-17 0.014930943
0.61601986 -0.05 0.048012362 -0.22161336 -3.4870756e-16 0.016205127
0.60975989 -0.05 0.0484799 -0.24465984 -4.1341681e-16 0.017593477
0.60349943 -0.05 0.048940872 -0.27024445 1.6052508e-16 0.019081239
0.59723848 -0.05 0.049395205 -0.29745046 7.5570012e-17 0.020652619
0.59097704 -0.05 0.049842815 -0.3264346 1.1496286e-16 0.022285905
0.58471513 -0.05 0.050283612 -0.3573152 1.7875385e-17 0.023969856
0.57845273 -0.05 0.050717479 -0.39030519 8.3371516e-17 0.025722536
0.57218984 -0.05 0.051144272 -0.42520878 -7.5631871e-17 0.027523608
0.56592648 -0.05 0.051563958 -0.46226744 -6.8781898e-17 0.029380607
0.55966264 -0.05 0.051976414 -0.50153538 -9.8795101e-18 0.031279901
0.5533983 -0.05 0.052381481 -0.54318738 7.5120289e-17 0.033226002
0.54713349 -0.05 0.052779085 -0.58744345 -7.3775147e-17 0.035210873
0.54086821 -0.05 0.053169064 -0.63434156 -1.6069124e-16 0.037240722
0.53460245 -0.05 0.053551279 -0.6837458 1.7037231e-16 0.03929497
0.52833621 -0.05 0.05392566 -0.73610641 -1.8283254e-16 0.041381588
0.5220695 -0.05 0.054292033 -0.79159135 4.0579511e-16 0.043480682
0.51580232 -0.05 0.054650258 -0.85063941 -1.0811465e-16 0.045616362
0.50953466 -0.05 0.055000166 -0.91292242 8.8010193e-17 0.047750669
0.50326655 -0.05 0.055341619 -0.97856937 -2.1416302e-16 0.049889571
0.49699797 -0.05 0.055674494 -1.0477768 -1.1143213e-17 0.051981188
0.49072894 -0.05 0.055998595 -1.1212189 -2.3641319e-16 0.054061867
0.48445944 -0.05 0.056313715 -1.2011828 1.1222785e-16 0.056377738
0.47818949 -0.05 0.056619732 -1.2940221 -2.4487998e-16 0.059233788
0.4719191 -0.05 0.056916509 -1.3986025 -1.0041646e-16 0.062036219
0.46564827 -0.05 0.057203793 -1.5069396 1.4220964e-16 0.064414924
0.459377 -0.05 0.057481371 -1.6189234 -2.3909453e-16 0.066622511
0.45310531 -0.05 0.057749079 -1.7355773 -1.2121101e-16 0.068660658
0.44683318 -0.05 0.058006737 -1.857244 -1.3331964e-16 0.069788107
0.44056064 -0.05 0.058254116 -1.9839593 -5.4257176e-17 0.070667003
0.43428771 -0.05 0.058490976 -2.1164267 -1.1364288e-16 0.071814946
0.42801437 -0.05 0.058717108 -2.2551895 -1.9266604e-16 0.072742617
0.42174065 -0.05 0.058932313 -2.4000029 1.4985184e-16 0.073293028
0.41546655 -0.05 0.059136341 -2.5510002 7.9319532e-17 0.073411895
0.4091921 -0.05 0.059328915 -2.7084139 2.4372284e-17 0.073041306
0.4029173 -0.05 0.059509811 -2.8729312 -4.2048958e-17 0.072181971
0.39664216 -0.05 0.059678742 -3.0440033 -1.6554294e-16 0.070691023
0.39036671 -0.05 0.0598354 -3.2213727 -8.2240451e-17 0.06856713
0.38409096 -0.05 0.05997957 -3.4056769 5.6728696e-17 0.065729885
0.37781493 -0.05 0.060111011 -3.5977504 -7.360231e-17 0.062110182
0.37153863 -0.05 0.060229327 -3.7967673 2.6912249e-17 0.057562794
0.3652621 -0.05 0.060334195 -4.002304 -4.5147801e-17 0.05214105
0.35898536 -0.05 0.060425375 -4.2153216 -1.221264e-17 0.045668831
0.35270842 -0.05 0.060502529 -4.4362185 5.3652943e-18 0.03816984
0.34643133 -0.05 0.060565303 -4.6646524 -1.41888e-17 0.029724156
0.34015411 -0.05 0.060613309 -4.9001448 1.1441955e-17 0.019537299
0.33387678 -0.05 0.060646218 -5.1428069 9.6148996e-18 0.0077686225
0.3275994 -0.05 0.060663638 -5.3931093 7.1529115e-18 -0.0054415381
0.321322 -0.05 0.060665147 -5.6507147 -7.4586333e-18 -0.020533953
0.31504461 -0.05 0.060650355 -5.9145686 3.130493e-18 -0.037422549
0.30876728 -0.05 0.060618848 -6.1866389 1.8155575e-18 -0.055519751