# yPlus  FACE_DATA 448
# x y z  yPlus
0.29780381 -0.05 -0.059493071 22.903944
0.29216676 -0.05 -0.059540292 22.60283
0.28661076 -0.05 -0.059572265 22.270182
0.28113468 -0.05 -0.059589213 21.950479
0.2757374 -0.05 -0.059591414 21.644929
0.27041783 -0.05 -0.059579178 21.352559
0.26517487 -0.05 -0.059552792 21.073625
0.26000749 -0.05 -0.059512512 20.807697
0.25491462 -0.05 -0.059458638 20.555262
0.24989522 -0.05 -0.059391428 20.315679
0.24494829 -0.05 -0.059311079 20.087083
0.24007283 -0.05 -0.059217879 19.868274
0.23526783 -0.05 -0.059112081 19.657878
0.23053231 -0.05 -0.05899396 19.454971
0.22586534 -0.05 -0.058863772 19.260711
0.22126594 -0.05 -0.058721698 19.073949
0.21673319 -0.05 -0.058568013 18.895361
0.21226618 -0.05 -0.05840295 18.725329
0.20786399 -0.05 -0.058226652 18.562264
0.20352572 -0.05 -0.058039395 18.406635
0.19925051 -0.05 -0.057841403 18.258618
0.19503749 -0.05 -0.057632916 18.117933
0.19088579 -0.05 -0.057414149 17.985129
0.18679456 -0.05 -0.057185194 17.858436
0.182763 -0.05 -0.056946315 17.738514
0.17879028 -0.05 -0.056697713 17.625872
0.17487558 -0.05 -0.056439556 17.518666
0.17101812 -0.05 -0.056172062 17.418093
0.16721711 -0.05 -0.055895402 17.323243
0.16347178 -0.05 -0.055609722 17.234409
0.15978138 -0.05 -0.05531516 17.150391
0.15614516 -0.05 -0.055011952 17.071909
0.15256238 -0.05 -0.054700218 16.99907
0.14903231 -0.05 -0.054380109 16.931267
0.14555425 -0.05 -0.054051783 16.870003
0.14212748 -0.05 -0.053715341 16.813481
0.13875133 -0.05 -0.053370951 16.76151
0.13542511 -0.05 -0.053018733 16.713717
0.13214814 -0.05 -0.052658866 16.670776
0.12891976 -0.05 -0.052291467 16.632858
0.12573934 -0.05 -0.051916569 16.597811
0.12260622 -0.05 -0.051534362 16.566447
0.11951977 -0.05 -0.051144975 16.54115
0.11647939 -0.05 -0.050748428 16.5198
0.11348447 -0.05 -0.050344802 16.502231
0.11053441 -0.05 -0.049934236 16.488414
0.10762864 -0.05 -0.049516768 16.479355
0.10476655 -0.05 -0.049092495 16.472241
0.10194759 -0.05 -0.048661579 16.469917
0.099171206 -0.05 -0.048223968 16.470143
0.096436856 -0.05 -0.04777972 16.471971
0.093743995 -0.05 -0.047328983 16.478972
0.091092117 -0.05 -0.046871678 16.490259
0.088480701 -0.05 -0.046407875 16.502684
0.085909238 -0.05 -0.04593764 16.519326
0.083377235 -0.05 -0.045461008 16.536817
0.080884203 -0.05 -0.044978023 16.559608
0.078429695 -0.05 -0.044488582 16.584923
0.076013253 -0.05 -0.043992681 16.613461
0.073634409 -0.05 -0.043490396 16.645009
0.07129272 -0.05 -0.042981748 16.679806
0.068987781 -0.05 -0.042466628 16.714758
0.066719178 -0.05 -0.041944997 16.748901
0.064486502 -0.05 -0.041416852 16.785319
0.062289374 -0.05 -0.040882104 16.826049
0.060127425 -0.05 -0.040340672 16.871657
0.058000293 -0.05 -0.039792494 16.921555
0.055907634 -0.05 -0.03923747 16.973693
0.053849099 -0.05 -0.038675567 17.026445
0.051824395 -0.05 -0.038106598 17.081848
0.049833232 -0.05 -0.037530413 17.135784
0.047875307 -0.05 -0.036946947 17.195861
0.045950363 -0.05 -0.036356018 17.25866
0.044058165 -0.05 -0.035757441 17.322468
0.042198518 -0.05 -0.035150941 17.385936
0.040371222 -0.05 -0.034536324 17.450072
0.038576079 -0.05 -0.033913442 17.523391
0.036812955 -0.05 -0.03328201 17.608855
0.035081745 -0.05 -0.032641718 17.699242
0.033382373 -0.05 -0.031992255 17.790326
0.031714787 -0.05 -0.031333306 17.877955
0.030078978 -0.05 -0.030664516 17.966084
0.028474999 -0.05 -0.029985452 18.059762
0.026902919 -0.05 -0.029295735 18.157195
0.025362885 -0.05 -0.028594878 18.244416
0.023855103 -0.05 -0.027882362 18.326341
0.022379832 -0.05 -0.027157676 18.422449
0.020937453 -0.05 -0.026420193 18.540846
0.019528368 -0.05 -0.025669336 18.649724
0.01815315 -0.05 -0.024904379 18.705167
0.016812453 -0.05 -0.024124559 18.670397
0.015507028 -0.05 -0.023329129 18.57955
0.014237813 -0.05 -0.022517235 18.485594
0.013005929 -0.05 -0.021688013 18.489222
0.01181269 -0.05 -0.020840558 18.671576
0.010659638 -0.05 -0.019973864 19.027424
0.0095485162 -0.05 -0.019086863 19.567281
0.0084813793 -0.05 -0.018178684 20.287112
0.00746071 -0.05 -0.017248464 21.217578
0.0064892303 -0.05 -0.016295094 22.169181
0.0055699913 -0.05 -0.015317817 22.963958
0.004706724 -0.05 -0.014316432 23.518893
0.0039032946 -0.05 -0.013290524 23.804396
0.0031637923 -0.05 -0.012240231 23.78709
0.0024929688 -0.05 -0.011166823 23.426922
0.0018954132 -0.05 -0.010071727 22.73985
0.0013754914 -0.05 -0.0089573983 21.678062
0.00093717105 -0.05 -0.0078278319 20.205426
0.00058357729 -0.05 -0.0066873966 18.331079
0.00031651746 -0.05 -0.0055413789 16.032702
0.00013613754 -0.05 -0.0043958358 13.232947
4.1003657e-05 -0.05 -0.0032568475 9.9788059
0.99685529 -0.05 0.0075862203 71.884532
0.99065213 -0.05 0.0066235654 65.306469
0.98444789 -0.05 0.0056678865 65.24116
0.97824258 -0.05 0.0047191572 65.004472
0.97203623 -0.05 0.0037772713 64.790119
0.96582888 -0.05 0.002842071 64.547543
0.95962051 -0.05 0.0019135732 64.301072
0.95341116 -0.05 0.00099171452 64.043733
0.94720085 -0.05 7.6340645e-05 63.780367
0.9409896 -0.05 -0.00083263278 63.506525
0.93477741 -0.05 -0.0017352106 63.227122
0.9285643 -0.05 -0.0026314527 62.940707
0.9223503 -0.05 -0.0035214356 62.649925
0.91613541 -0.05 -0.0044051942 62.35291
0.90991966 -0.05 -0.005282879 62.052993
0.90370305 -0.05 -0.0061544878 61.749506
0.89748561 -0.05 -0.0070200518 61.443597
0.89126734 -0.05 -0.0078797067 61.134033
0.88504825 -0.05 -0.0087334661 60.823424
0.87882836 -0.05 -0.0095812733 60.509527
0.87260768 -0.05 -0.010423266 60.193639
0.86638621 -0.05 -0.011259511 59.874504
0.86016398 -0.05 -0.012089981 59.552932
0.85394098 -0.05 -0.012914762 59.227359
0.84771724 -0.05 -0.013733916 58.898184
0.84149277 -0.05 -0.01454743 58.563725
0.83526755 -0.05 -0.015355266 58.225568
0.82904163 -0.05 -0.016157601 57.88413
0.822815 -0.05 -0.016954394 57.541682
0.81658765 -0.05 -0.0177456 57.19799
0.81035959 -0.05 -0.018531296 56.855297
0.80413086 -0.05 -0.019311493 56.512895
0.79790144 -0.05 -0.020086223 56.171449
0.79167133 -0.05 -0.020855439 55.82883
0.78544057 -0.05 -0.021619229 55.486706
0.77920913 -0.05 -0.022377558 55.142765
0.77297702 -0.05 -0.023130394 54.79522
0.76674427 -0.05 -0.023877798 54.44245
0.76051085 -0.05 -0.024619755 54.084979
0.75427679 -0.05 -0.025356255 53.723017
0.74804209 -0.05 -0.026087271 53.358861
0.74180674 -0.05 -0.026812786 52.994346
0.73557076 -0.05 -0.027532787 52.632516
0.72933414 -0.05 -0.028247238 52.272719
0.72309689 -0.05 -0.028956171 51.915071
0.71685902 -0.05 -0.029659617 51.559445
0.71062052 -0.05 -0.030357401 51.203722
0.70438138 -0.05 -0.031049575 50.845611
0.69814162 -0.05 -0.031736103 50.482538
0.69190124 -0.05 -0.032416892 50.110692
0.68566023 -0.05 -0.033091999 49.731719
0.67941861 -0.05 -0.033761326 49.347636
0.67317636 -0.05 -0.034424883 48.963813
0.6669335 -0.05 -0.035082553 48.583185
0.66069001 -0.05 -0.035734236 48.207145
0.6544459 -0.05 -0.036380018 47.835375
0.64820117 -0.05 -0.03701981 47.466008
0.64195583 -0.05 -0.037653449 47.095105
0.63570985 -0.05 -0.0382809 46.718041
0.62946326 -0.05 -0.038902166 46.328991
0.62321605 -0.05 -0.03951711 45.925814
0.6169682 -0.05 -0.040125646 45.513676
0.61071973 -0.05 -0.040727771 45.101278
0.60447063 -0.05 -0.041323342 44.692281
0.59822091 -0.05 -0.041912286 44.286173
0.59197057 -0.05 -0.042494519 43.883043
0.58571958 -0.05 -0.04306995 43.481003
0.57946797 -0.05 -0.043638464 43.074748
0.57321572 -0.05 -0.044199916 42.655282
0.56696283 -0.05 -0.044754272 42.213529
0.56070931 -0.05 -0.045301412 41.74717
0.55445514 -0.05 -0.045841173 41.266593
0.54820034 -0.05 -0.046373484 40.788949
0.54194491 -0.05 -0.046898182 40.315582
0.53568881 -0.05 -0.047415129 39.847801
0.52943209 -0.05 -0.047924252 39.385078
0.52317471 -0.05 -0.04842538 38.925008
0.51691668 -0.05 -0.048918373 38.460787
0.51065801 -0.05 -0.04940306 37.979186
0.5043987 -0.05 -0.049879304 37.465115
0.49813874 -0.05 -0.050346983 36.923623
0.49187812 -0.05 -0.050805898 36.383706
0.48561685 -0.05 -0.051255845 35.846348
0.47935495 -0.05 -0.051696702 35.314156
0.47309239 -0.05 -0.052128329 34.786164
0.46682919 -0.05 -0.052550475 34.25889
0.46056535 -0.05 -0.052962925 33.733116
0.45430086 -0.05 -0.05336552 33.207909
0.44803574 -0.05 -0.053758074 32.683557
0.44176997 -0.05 -0.05414036 32.158344
0.43550359 -0.05 -0.054512141 31.632718
0.42923657 -0.05 -0.054873203 31.108679
0.42296893 -0.05 -0.05522335 30.593312
0.41670068 -0.05 -0.055562329 30.089114
0.41043182 -0.05 -0.055889865 29.598512
0.40416236 -0.05 -0.056205732 29.121393
0.39789232 -0.05 -0.056509646 28.657749
0.39162168 -0.05 -0.056801295 28.211133
0.38535049 -0.05 -0.057080467 27.785871
0.37907874 -0.05 -0.057346918 27.378551
0.37280644 -0.05 -0.057600252 26.985273
0.36653362 -0.05 -0.057840147 26.602263
0.36026029 -0.05 -0.058066362 26.231229
0.35398647 -0.05 -0.058278559 25.869652
0.34771218 -0.05 -0.058476382 25.517993
0.34143745 -0.05 -0.058659443 25.174268
0.33516229 -0.05 -0.058827412 24.840472
0.32888673 -0.05 -0.058979898 24.514734
0.32261081 -0.05 -0.059116477 24.19661
0.31633456 -0.05 -0.059236758 23.885767
0.310058 -0.05 -0.059340326 23.586375
0.30378119 -0.05 -0.059426747 23.2381
0.29651263 -0.05 0.060507886 22.432788
0.29087588 -0.05 0.060433805 22.696808
0.28532048 -0.05 0.060346223 23.021555
0.2798453 -0.05 0.060245338 23.333112
0.27444923 -0.05 0.060131406 23.640956
0.26913115 -0.05 0.060004712 23.944001
0.26388997 -0.05 0.05986552 24.239947
0.25872465 -0.05 0.059714063 24.529286
0.25363412 -0.05 0.059550619 24.812343
0.24861733 -0.05 0.059375424 25.091426
0.24367327 -0.05 0.05918865 25.364288
0.23880093 -0.05 0.058990566 25.631214
0.23399932 -0.05 0.058781405 25.889444
0.22926746 -0.05 0.058561419 26.135013
0.22460436 -0.05 0.058330842 26.370001
0.22000908 -0.05 0.058089836 26.592836
0.21548069 -0.05 0.057838655 26.801619
0.21101827 -0.05 0.057577515 26.999564
0.20662088 -0.05 0.057306537 27.190934
0.20228766 -0.05 0.057025978 27.382718
0.1980177 -0.05 0.056736042 27.575887
0.19381014 -0.05 0.056436952 27.765124
0.1896641 -0.05 0.056128904 27.941186
0.18557875 -0.05 0.055811972 28.092842
0.18155326 -0.05 0.055486402 28.218227
0.17758681 -0.05 0.055152376 28.324196
0.17367858 -0.05 0.054810048 28.434249
0.16982776 -0.05 0.054459615 28.567413
0.16603358 -0.05 0.054101233 28.727638
0.16229527 -0.05 0.053735031 28.904453
0.15861206 -0.05 0.053361132 29.097205
0.15498321 -0.05 0.052979754 29.311656
0.15140796 -0.05 0.052591002 29.555733
0.1478856 -0.05 0.052195011 29.828502
0.1444154 -0.05 0.051791925 30.119928
0.14099667 -0.05 0.051381827 30.41693
0.13762871 -0.05 0.050964871 30.711578
0.13431084 -0.05 0.050541165 31.000253
0.13104237 -0.05 0.050110872 31.279249
0.12782264 -0.05 0.049674093 31.54873
0.12465102 -0.05 0.04923085 31.806051
0.12152686 -0.05 0.048781317 32.051935
0.1184495 -0.05 0.048325609 32.286632
0.11541835 -0.05 0.047863734 32.509192
0.11243281 -0.05 0.047395761 32.719346
0.10949227 -0.05 0.046921814 32.917861
0.10659615 -0.05 0.046441918 33.104658
0.10374386 -0.05 0.04595616 33.27908
0.10093482 -0.05 0.045464689 33.444088
0.098168494 -0.05 0.04496744 33.599462
0.095444338 -0.05 0.04446446 33.743371
0.092761799 -0.05 0.043955886 33.878397
0.090120374 -0.05 0.043441627 34.003926
0.087519542 -0.05 0.042921741 34.11785
0.084958794 -0.05 0.042396286 34.223371
0.082437632 -0.05 0.041865284 34.318983
0.07995557 -0.05 0.041328768 34.408147
0.077512162 -0.05 0.040786627 34.487999
0.075106948 -0.05 0.040238847 34.557584
0.072739463 -0.05 0.039685493 34.615862
0.070409261 -0.05 0.039126577 34.66464
0.068115939 -0.05 0.038561981 34.702947
0.065859085 -0.05 0.037991657 34.729348
0.06363829 -0.05 0.037415595 34.745079
0.061453177 -0.05 0.036833695 34.750109
0.05930338 -0.05 0.03624587 34.74355
0.057188534 -0.05 0.03565205 34.725467
0.055108302 -0.05 0.035052127 34.697218
0.053062334 -0.05 0.034446061 34.65552
0.051050342 -0.05 0.033833658 34.605502
0.049072037 -0.05 0.033214762 34.540686
0.047127119 -0.05 0.032589303 34.466608
0.045215336 -0.05 0.031957093 34.380353
0.043336455 -0.05 0.03131794 34.283932
0.041490289 -0.05 0.030671566 34.175923
0.039676641 -0.05 0.030017775 34.05476
0.037895316 -0.05 0.029356411 33.921631
0.036146186 -0.05 0.028687187 33.781212
0.034429154 -0.05 0.028009794 33.620098
0.032744151 -0.05 0.027323916 33.454439
0.031091129 -0.05 0.026629238 33.276546
0.029470089 -0.05 0.025925405 33.083945
0.027881093 -0.05 0.025211987 32.879025
0.026324218 -0.05 0.024488602 32.661146
0.02479962 -0.05 0.023754771 32.43074
0.023307517 -0.05 0.023009977 32.184577
0.021848182 -0.05 0.022253717 31.923671
0.020422005 -0.05 0.021485368 31.647936
0.019029402 -0.05 0.020704365 31.353598
0.017670962 -0.05 0.019909995 31.044914
0.016347355 -0.05 0.019101508 30.712114
0.015059347 -0.05 0.018278174 30.359412
0.013807895 -0.05 0.017439159 29.980842
0.012594138 -0.05 0.016583622 29.576096
0.01141941 -0.05 0.015710689 29.133261
0.010285275 -0.05 0.014819385 28.649492
0.0091934949 -0.05 0.013908682 28.117577
0.0081461461 -0.05 0.012977751 27.531324
0.0071457284 -0.05 0.012025786 26.875909
0.0061949872 -0.05 0.011051734 26.130817
0.0052969891 -0.05 0.010054903 25.266813
0.0044554682 -0.05 0.0090351747 24.259987
0.0036742992 -0.05 0.0079922172 23.084862
0.0029575671 -0.05 0.0069262551 21.701859
0.0023099953 -0.05 0.0058386619 20.057475
0.001736141 -0.05 0.0047309626 18.12734
0.0012403164 -0.05 0.0036057044 15.847357
0.00082640228 -0.05 0.0024669683 13.105987
0.00049742901 -0.05 0.0013191888 9.8942429
0.00025508972 -0.05 0.00016769017 6.6839633
9.940005e-05 -0.05 -0.00098146906 2.5546204
2.8795654e-05 -0.05 -0.0021222407 6.8966675
0.9968456 -0.05 0.0084855207 3.4970507
0.99062317 -0.05 0.0093144802 0.82579676
0.98439981 -0.05 0.010136442 0.88450673
0.97817552 -0.05 0.010951433 0.38060167
0.97195034 -0.05 0.011759559 0.62416509
0.9657243 -0.05 0.01256098 0.42787471
0.95949739 -0.05 0.013355679 0.55296201
0.95326964 -0.05 0.014143718 0.5239248
0.94704108 -0.05 0.014925254 0.55774118
0.9408117 -0.05 0.01570037 0.56238103
0.93458154 -0.05 0.016469072 0.5777391
0.92835059 -0.05 0.01723142 0.58756943
0.92211887 -0.05 0.017987491 0.59884813
0.9158864 -0.05 0.01873732 0.60915288
0.90965321 -0.05 0.019481059 0.62147441
0.90341929 -0.05 0.020218704 0.62973195
0.89718465 -0.05 0.020950287 0.64153635
0.89094933 -0.05 0.021675945 0.64873592
0.88471331 -0.05 0.022395692 0.65902867
0.87847661 -0.05 0.02310947 0.66647606
0.87223925 -0.05 0.023817418 0.67554158
0.86600123 -0.05 0.024519604 0.69205714
0.85976257 -0.05 0.025215998 0.71519325
0.85352328 -0.05 0.025906689 0.74986268
0.84728335 -0.05 0.026591738 0.93038267
0.84104282 -0.05 0.027271132 0.9184177
0.83480166 -0.05 0.027944834 0.94840961
0.82855991 -0.05 0.028613021 0.89116379
0.82231758 -0.05 0.029275652 0.93229412
0.81607464 -0.05 0.029932682 0.87105337
0.80983114 -0.05 0.030584187 0.89239865
0.80358704 -0.05 0.031230181 0.87291875
0.7973424 -0.05 0.031870694 0.84295383
0.79109719 -0.05 0.032505681 0.7960256
0.78485143 -0.05 0.033135227 0.72485616
0.77860511 -0.05 0.033759299 0.62207459
0.77235825 -0.05 0.034377865 0.46819801
0.76611086 -0.05 0.034990986 0.16372261
0.75986292 -0.05 0.035598648 0.45525657
0.75361446 -0.05 0.03620084 0.61933302
0.74736547 -0.05 0.036797536 0.76327768
0.74111596 -0.05 0.037388718 0.90056071
0.73486593 -0.05 0.037974374 1.0342657
0.72861538 -0.05 0.038554466 1.1658523
0.72236432 -0.05 0.039129029 1.2963148
0.71611276 -0.05 0.039698093 1.4289505
0.70986068 -0.05 0.040261483 1.5628118
0.70360809 -0.05 0.040819249 1.699156
0.697355 -0.05 0.041371358 1.8394238
0.69110142 -0.05 0.041917716 1.9843547
0.68484733 -0.05 0.04245838 2.1362574
0.67859275 -0.05 0.042993252 2.2924226
0.67233768 -0.05 0.043522341 2.4534096
0.66608211 -0.05 0.044045533 2.6182786
0.65982604 -0.05 0.044562725 2.7857023
0.65356948 -0.05 0.045074003 2.957353
0.64731243 -0.05 0.045579281 3.1330573
0.6410549 -0.05 0.046078392 3.3121924
0.63479687 -0.05 0.046571305 3.4943765
0.62853835 -0.05 0.047058019 3.6799377
0.62227935 -0.05 0.047538401 3.8687231
0.61601986 -0.05 0.048012362 4.0616814
0.60975989 -0.05 0.0484799 4.2677053
0.60349943 -0.05 0.048940872 4.4852572
0.59723848 -0.05 0.049395205 4.7056368
0.59097704 -0.05 0.049842815 4.9295619
0.58471513 -0.05 0.050283612 5.1575307
0.57845273 -0.05 0.050717479 5.3903554
0.57218984 -0.05 0.051144272 5.6262992
0.56592648 -0.05 0.051563958 5.8663276
0.55966264 -0.05 0.051976414 6.1104637
0.5533983 -0.05 0.052381481 6.359108
0.54713349 -0.05 0.052779085 6.6132594
0.54086821 -0.05 0.053169064 6.8722055
0.53460245 -0.05 0.053551279 7.1349228
0.52833621 -0.05 0.05392566 7.4030706
0.5220695 -0.05 0.054292033 7.6771733
0.51580232 -0.05 0.054650258 7.9583851
0.50953466 -0.05 0.055000166 8.2447047
0.50326655 -0.05 0.055341619 8.5359327
0.49699797 -0.05 0.055674494 8.8328707
0.49072894 -0.05 0.055998595 9.1372277
0.48445944 -0.05 0.056313715 9.4576873
0.47818949 -0.05 0.056619732 9.8163418
0.4719191 -0.05 0.056916509 10.205454
0.46564827 -0.05 0.057203793 10.59326
0.459377 -0.05 0.057481371 10.979863
0.45310531 -0.05 0.057749079 11.368448
0.44683318 -0.05 0.058006737 11.760317
0.44056064 -0.05 0.058254116 12.154735
0.43428771 -0.05 0.058490976 12.554019
0.42801437 -0.05 0.058717108 12.958865
0.42174065 -0.05 0.058932313 13.368604
0.41546655 -0.05 0.059136341 13.782564
0.4091921 -0.05 0.059328915 14.201381
0.4029173 -0.05 0.059509811 14.625961
0.39664216 -0.05 0.059678742 15.055297
0.39036671 -0.05 0.0598354 15.487492
0.38409096 -0.05 0.05997957 15.924367
0.37781493 -0.05 0.060111011 16.36688
0.37153863 -0.05 0.060229327 16.813526
0.3652621 -0.05 0.060334195 17.262215
0.35898536 -0.05 0.060425375 17.715421
0.35270842 -0.05 0.060502529 18.17317
0.34643133 -0.05 0.060565303 18.635288
0.34015411 -0.05 0.060613309 19.099483
0.33387678 -0.05 0.060646218 19.566698
0.3275994 -0.05 0.060663638 20.036577
0.321322 -0.05 0.060665147 20.509365
0.31504461 -0.05 0.060650355 20.981991
0.30876728 -0.05 0.060618848 21.458377
0.30249006 -0.05 0.060570191 21.998332
